TITLE     = "fluent22.1.0  build-id: 10213"
VARIABLES = "X"
"Y"
"Pressure"
"X Velocity"
"Y Velocity"
DATASETAUXDATA Common.DensityVar="23"
DATASETAUXDATA Common.PressureVar="3"
DATASETAUXDATA Common.TemperatureVar="12"
DATASETAUXDATA Common.TurbulentDynamicViscosityVar="17"
DATASETAUXDATA Common.UVar="5"
DATASETAUXDATA Common.VectorVarsAreVelocity="TRUE"
DATASETAUXDATA Common.ViscosityVar="25"
DATASETAUXDATA Common.VVar="7"
ZONE T="fluid"
 STRANDID=1, SOLUTIONTIME=0.2725
 Nodes=10240, Elements=10080, ZONETYPE=FEQuadrilateral
 DATAPACKING=POINT
 DT=(DOUBLE DOUBLE DOUBLE DOUBLE DOUBLE )
 -4.856290020E+00 -7.872354469E-01 6.969574299E+04 1.017586791E+02 -6.341997413E-04
 -4.486948990E+00 -7.102365316E-01 6.969578109E+04 1.017583530E+02 -7.022811252E-04
 -4.884823481E+00 -5.813004056E-01 6.969574554E+04 1.017586437E+02 -4.567370723E-04
 -4.512962796E+00 -5.223574297E-01 6.969578240E+04 1.017583215E+02 -4.957769396E-04
 -4.144852103E+00 -6.389170633E-01 6.969585532E+04 1.017577014E+02 -8.399897523E-04
 -4.168532130E+00 -4.677620223E-01 6.969585500E+04 1.017576706E+02 -5.727049527E-04
 -3.828042897E+00 -5.728691980E-01 6.969592500E+04 1.017570321E+02 -9.710461507E-04
 -3.849561669E+00 -4.172019819E-01 6.969592320E+04 1.017570004E+02 -6.389428259E-04
 -3.534702656E+00 -5.117138030E-01 6.969600324E+04 1.017562312E+02 -1.103873140E-03
 -3.554220289E+00 -3.703870866E-01 6.969599922E+04 1.017562039E+02 -6.997659325E-04
 -3.260624203E+00 -4.694220063E-01 6.969610254E+04 1.017552157E+02 -1.264043464E-03
 -3.278581600E+00 -3.394526434E-01 6.969609662E+04 1.017551896E+02 -7.757800908E-04
 -3.006459696E+00 -4.330119208E-01 6.969622111E+04 1.017539944E+02 -1.448322079E-03
 -3.023022059E+00 -3.131565575E-01 6.969621364E+04 1.017539668E+02 -8.635968432E-04
 -2.771251778E+00 -3.993171619E-01 6.969636049E+04 1.017525428E+02 -1.644399587E-03
 -2.786523162E+00 -2.888214574E-01 6.969635145E+04 1.017525141E+02 -9.503489615E-04
 -2.553628358E+00 -3.681411976E-01 6.969652458E+04 1.017508209E+02 -1.852468519E-03
 -2.567705287E+00 -2.663054110E-01 6.969651406E+04 1.017507909E+02 -1.034328785E-03
 -2.352314522E+00 -3.393014148E-01 6.969671685E+04 1.017487911E+02 -2.076455246E-03
 -2.365286522E+00 -2.454765376E-01 6.969670501E+04 1.017487588E+02 -1.117167232E-03
 -2.166125763E+00 -3.126281498E-01 6.969694121E+04 1.017464103E+02 -2.321059543E-03
 -2.178075855E+00 -2.262123087E-01 6.969692822E+04 1.017463748E+02 -1.200731547E-03
 -1.993961676E+00 -2.879637849E-01 6.969720249E+04 1.017436262E+02 -2.592274535E-03
 -2.004966843E+00 -2.083988950E-01 6.969718854E+04 1.017435860E+02 -1.287681074E-03
 -1.834800089E+00 -2.651619080E-01 6.969750634E+04 1.017403774E+02 -2.897582079E-03
 -1.844931702E+00 -1.919305598E-01 6.969749168E+04 1.017403305E+02 -1.381704834E-03
 -1.687691594E+00 -2.440865294E-01 6.969785932E+04 1.017365928E+02 -3.246109908E-03
 -1.697015811E+00 -1.767090931E-01 6.969784425E+04 1.017365366E+02 -1.487540386E-03
 -1.551754463E+00 -2.246113532E-01 6.969826910E+04 1.017321888E+02 -3.648938906E-03
 -1.560332603E+00 -1.626432857E-01 6.969825397E+04 1.017321203E+02 -1.611171606E-03
 -1.426169903E+00 -2.066190984E-01 6.969874468E+04 1.017270679E+02 -4.119482001E-03
 -1.434058789E+00 -1.496484390E-01 6.969872991E+04 1.017269832E+02 -1.760110997E-03
 -1.310177650E+00 -1.900008671E-01 6.969929653E+04 1.017211161E+02 -4.673889437E-03
 -1.317429934E+00 -1.376459084E-01 6.969928262E+04 1.017210103E+02 -1.943688252E-03
 -1.203071862E+00 -1.746555570E-01 6.969993693E+04 1.017142000E+02 -5.331521517E-03
 -1.209736320E+00 -1.265626790E-01 6.969992447E+04 1.017140673E+02 -2.173387446E-03
 -1.104197295E+00 -1.604893131E-01 6.970068017E+04 1.017061640E+02 -6.115500023E-03
 -1.110319105E+00 -1.163309703E-01 6.970066987E+04 1.017059974E+02 -2.463247633E-03
 -1.012945746E+00 -1.474150190E-01 6.970154298E+04 1.016968262E+02 -7.053353673E-03
 -1.018566749E+00 -1.068878679E-01 6.970153567E+04 1.016966172E+02 -2.830334395E-03
 -9.287527422E-01 -1.353518219E-01 6.970254486E+04 1.016859744E+02 -8.177741868E-03
 -9.339116805E-01 -9.817498148E-02 6.970254152E+04 1.016857130E+02 -3.295275186E-03
 -8.510944585E-01 -1.242246919E-01 6.970370854E+04 1.016733608E+02 -9.527303039E-03
 -8.558271987E-01 -9.013812558E-02 6.970371032E+04 1.016730352E+02 -3.882885009E-03
 -7.794848506E-01 -1.139640109E-01 6.970506052E+04 1.016586970E+02 -1.114761012E-02
 -7.838245915E-01 -8.272702343E-02 6.970506875E+04 1.016582932E+02 -4.622887747E-03
 -7.134729855E-01 -1.045051907E-01 6.970663166E+04 1.016416464E+02 -1.309218566E-02
 -7.174504508E-01 -7.589503072E-02 6.970664792E+04 1.016411482E+02 -5.550692808E-03
 -6.526405591E-01 -9.578831685E-02 6.970845790E+04 1.016218173E+02 -1.542366869E-02
 -6.562841762E-01 -6.959887882E-02 6.970848396E+04 1.016212060E+02 -6.708277789E-03
 -5.965995850E-01 -8.775781833E-02 6.971058097E+04 1.015987542E+02 -1.821514287E-02
 -5.999356519E-01 -6.379843582E-02 6.971061891E+04 1.015980079E+02 -8.145211669E-03
 -5.449902461E-01 -8.036215935E-02 6.971304937E+04 1.015719275E+02 -2.155161420E-02
 -5.480430856E-01 -5.845648417E-02 6.971310154E+04 1.015710212E+02 -9.919814661E-03
 -4.974788941E-01 -7.355355301E-02 6.971591931E+04 1.015407227E+02 -2.553173124E-02
 -5.002709977E-01 -5.353851386E-02 6.971598843E+04 1.015396276E+02 -1.210050663E-02
 -4.537561902E-01 -6.728769487E-02 6.971925593E+04 1.015044268E+02 -3.026971303E-02
 -4.563083515E-01 -4.901253000E-02 6.971934508E+04 1.015031104E+02 -1.476734431E-02
 -4.135353747E-01 -6.152351509E-02 6.972313459E+04 1.014622142E+02 -3.589738970E-02
 -4.158668132E-01 -4.484887376E-02 6.972324726E+04 1.014606392E+02 -1.801366689E-02
 -3.765506578E-01 -5.622294787E-02 6.972764240E+04 1.014131292E+02 -4.256640834E-02
 -3.786791344E-01 -4.102005591E-02 6.972778250E+04 1.014112536E+02 -2.194794780E-02
 -3.425557235E-01 -5.135071706E-02 6.973287984E+04 1.013560669E+02 -5.045097027E-02
 -3.444976469E-01 -3.750060189E-02 6.973305180E+04 1.013538436E+02 -2.669609826E-02
 -3.113223378E-01 -4.687413668E-02 6.973896273E+04 1.012897519E+02 -5.975103202E-02
 -3.130928639E-01 -3.426690780E-02 6.973917150E+04 1.012871278E+02 -3.240409171E-02
 -2.826390543E-01 -4.276292548E-02 6.974602433E+04 1.012127125E+02 -7.069581842E-02
 -2.842521787E-01 -3.129710641E-02 6.974627546E+04 1.012096281E+02 -3.924093809E-02
 -2.563100120E-01 -3.898903448E-02 6.975421778E+04 1.011232531E+02 -8.354806446E-02
 -2.577786552E-01 -2.857094256E-02 6.975451748E+04 1.011196419E+02 -4.740237430E-02
 -2.321538160E-01 -3.552648661E-02 6.976371884E+04 1.010194214E+02 -9.860918156E-02
 -2.334899026E-01 -2.606965735E-02 6.976407407E+04 1.010152087E+02 -5.711537269E-02
 -2.100024977E-01 -3.235122758E-02 6.977472901E+04 1.008989704E+02 -1.162255157E-01
 -2.112170308E-01 -2.377588038E-02 6.977514756E+04 1.008940724E+02 -6.864364238E-02
 -1.897005487E-01 -2.944098733E-02 6.978747907E+04 1.007593150E+02 -1.367961202E-01
 -1.908036776E-01 -2.167352964E-02 6.978796973E+04 1.007536377E+02 -8.229449144E-02
 -1.711040220E-01 -2.677515119E-02 6.980223318E+04 1.005974810E+02 -1.607822707E-01
 -1.721051060E-01 -1.974771846E-02 6.980280588E+04 1.005909179E+02 -9.842726673E-02
 -1.540796972E-01 -2.433464011E-02 6.981929364E+04 1.004100449E+02 -1.887208767E-01
 -1.549873644E-01 -1.798466897E-02 6.981995966E+04 1.004024752E+02 -1.174652808E-01
 -1.385043047E-01 -2.210179945E-02 6.983900629E+04 1.001930616E+02 -2.212369342E-01
 -1.393265066E-01 -1.637163173E-02 6.983977859E+04 1.001843462E+02 -1.399064306E-01
 -1.242638044E-01 -2.006029562E-02 6.986176685E+04 9.994198188E+01 -2.590749604E-01
 -1.250078666E-01 -1.489681108E-02 6.986266051E+04 9.993196036E+01 -1.663531237E-01
 -1.112527161E-01 -1.819502001E-02 6.988802794E+04 9.965155333E+01 -3.031171811E-01
 -1.119253853E-01 -1.354929577E-02 6.988906065E+04 9.964003797E+01 -1.975262507E-01
 -9.937349718E-02 -1.649199987E-02 6.991830916E+04 9.931568035E+01 -3.544153324E-01
 -9.998098450E-02 -1.231899455E-02 6.991950187E+04 9.930244490E+01 -2.342938254E-01
 -8.853596412E-02 -1.493831548E-02 6.995320915E+04 9.892725220E+01 -4.142626024E-01
 -8.908398596E-02 -1.119657637E-02 6.995458723E+04 9.891202268E+01 -2.777364439E-01
 -7.865675593E-02 -1.352202326E-02 6.999341882E+04 9.847795106E+01 -4.842497764E-01
 -7.915057107E-02 -1.017341487E-02 6.999501277E+04 9.846040002E+01 -3.291958224E-01
 -6.965883520E-02 -1.223208443E-02 7.003973477E+04 9.795800294E+01 -5.664084817E-01
 -7.010327962E-02 -9.241536847E-03 7.004158351E+04 9.793772482E+01 -3.903866931E-01
 -6.147102503E-02 -1.105829874E-02 7.009308317E+04 9.735588619E+01 -6.632798543E-01
 -6.187054407E-02 -8.393574463E-03 7.009523841E+04 9.733231520E+01 -4.634746609E-01
 -5.402757891E-02 -9.991243029E-03 7.015454902E+04 9.665772759E+01 -7.781608421E-01
 -5.438625710E-02 -7.622720862E-03 7.015707651E+04 9.663015621E+01 -5.513250793E-01
 -4.726778151E-02 -9.022214117E-03 7.022542080E+04 9.584688396E+01 -9.151157714E-01
 -4.758937014E-02 -6.922688997E-03 7.022839895E+04 9.581436876E+01 -6.575168105E-01
 -4.113557793E-02 -8.143175904E-03 7.030722682E+04 9.490247773E+01 -1.078337660E+00
 -4.142352069E-02 -6.287673442E-03 7.031074545E+04 9.486413963E+01 -7.856457470E-01
 -3.558744838E-02 -7.298242235E-03 7.040198705E+04 9.379729987E+01 -1.258013306E+00
 -3.584355833E-02 -5.667929100E-03 7.040605733E+04 9.375308342E+01 -9.260885002E-01
 -3.060281457E-02 -6.320378709E-03 7.051234141E+04 9.249557547E+01 -1.440365928E+00
 -3.082384629E-02 -4.910136345E-03 7.051688726E+04 9.244623332E+01 -1.065270960E+00
 -2.609805642E-02 -5.436679943E-03 7.064098991E+04 9.095450324E+01 -1.638322905E+00
 -2.628738706E-02 -4.225321651E-03 7.064601967E+04 9.090020953E+01 -1.214462214E+00
 -2.203291089E-02 -4.639243929E-03 7.079147038E+04 8.912303245E+01 -1.866977465E+00
 -2.219363425E-02 -3.607360700E-03 7.079705014E+04 8.906276275E+01 -1.387303333E+00
 -1.837025793E-02 -3.920785146E-03 7.096822066E+04 8.691879844E+01 -2.136486935E+00
 -1.850520656E-02 -3.050606882E-03 7.097447223E+04 8.685170222E+01 -1.591823327E+00
 -1.507588585E-02 -3.274588648E-03 7.117810663E+04 8.424520697E+01 -2.450310323E+00
 -1.518765152E-02 -2.549855751E-03 7.118509456E+04 8.416958048E+01 -1.830307754E+00
 -1.211827363E-02 -2.694467466E-03 7.142788635E+04 8.091736918E+01 -2.840337051E+00
 -1.220922627E-02 -2.100312031E-03 7.143589983E+04 8.083168385E+01 -2.128958275E+00
 -9.468389082E-03 -2.174723076E-03 7.173259865E+04 7.675010454E+01 -3.297386273E+00
 -9.540694318E-03 -1.697559000E-03 7.174164857E+04 7.665100953E+01 -2.477946704E+00
 -7.099501650E-03 -1.710108729E-03 7.209912148E+04 7.120509558E+01 -3.936934433E+00
 -7.155136974E-03 -1.337530085E-03 7.210997551E+04 7.108750694E+01 -2.975960967E+00
 -4.987008846E-03 -1.295795429E-03 7.256403699E+04 6.393964824E+01 -4.664857653E+00
 -5.027778610E-03 -1.016482503E-03 7.257629511E+04 6.380343092E+01 -3.535720170E+00
 -3.108275347E-03 -9.273403557E-04 7.307970893E+04 5.325385253E+01 -5.800285708E+00
 -3.135824605E-03 -7.309727869E-04 7.309483639E+04 5.307097981E+01 -4.429562418E+00
 -1.442483843E-03 -6.006575326E-04 7.365370731E+04 4.065177247E+01 -6.679289284E+00
 -1.458311146E-03 -4.778340428E-04 7.366953038E+04 4.046770741E+01 -5.203271350E+00
 2.950318352E-05 -3.119902977E-04 7.397976364E+04 3.471075806E+01 -6.744638541E+00
 2.403397564E-05 -2.541545121E-04 7.399337251E+04 3.456363038E+01 -5.321545977E+00
 -4.904860300E+00 -3.743658139E-01 6.969574567E+04 1.017586214E+02 -2.778890172E-04
 -4.531131307E+00 -3.335553645E-01 6.969578120E+04 1.017583073E+02 -2.876236375E-04
 -4.184970161E+00 -2.957549547E-01 6.969585189E+04 1.017576634E+02 -3.031715611E-04
 -3.864397149E+00 -2.607484319E-01 6.969591836E+04 1.017569955E+02 -3.052137161E-04
 -3.567571948E+00 -2.283348622E-01 6.969599198E+04 1.017562068E+02 -2.960919191E-04
 -3.290851723E+00 -2.088148321E-01 6.969608714E+04 1.017551986E+02 -2.894339696E-04
 -3.034340420E+00 -1.926848597E-01 6.969620213E+04 1.017539801E+02 -2.814812976E-04
 -2.796960757E+00 -1.777576448E-01 6.969633785E+04 1.017525330E+02 -2.596418733E-04
 -2.577327971E+00 -1.639461362E-01 6.969649835E+04 1.017508158E+02 -2.203555743E-04
 -2.374155376E+00 -1.511694476E-01 6.969668726E+04 1.017487900E+02 -1.627920898E-04
 -2.186247523E+00 -1.393524284E-01 6.969690849E+04 1.017464122E+02 -8.601031783E-05
 -2.012493847E+00 -1.284252634E-01 6.969716689E+04 1.017436296E+02 1.062229936E-05
 -1.851862735E+00 -1.183231009E-01 6.969746820E+04 1.017403800E+02 1.272259059E-04
 -1.703396013E+00 -1.089857056E-01 6.969781906E+04 1.017365914E+02 2.634704806E-04
 -1.566203807E+00 -1.003571358E-01 6.969822722E+04 1.017321794E+02 4.184818728E-04
 -1.439459765E+00 -9.238544286E-02 6.969870178E+04 1.017270451E+02 5.906661647E-04
 -1.322396603E+00 -8.502239157E-02 6.969925334E+04 1.017210732E+02 7.775392485E-04
 -1.214301959E+00 -7.822319947E-02 6.969989433E+04 1.017141287E+02 9.755255705E-04
 -1.114514538E+00 -7.194629451E-02 6.970063923E+04 1.017060540E+02 1.179709901E-03
 -1.022420522E+00 -6.615308941E-02 6.970150496E+04 1.016966650E+02 1.383540023E-03
 -9.374502246E-01 -6.080777163E-02 6.970251125E+04 1.016857468E+02 1.578483642E-03
 -8.590749843E-01 -5.587710787E-02 6.970368113E+04 1.016730490E+02 1.753622760E-03
 -7.868042681E-01 -5.133026225E-02 6.970504140E+04 1.016582794E+02 1.895172582E-03
 -7.201829794E-01 -4.713862693E-02 6.970662328E+04 1.016410977E+02 1.985954529E-03
 -6.587889512E-01 -4.327566473E-02 6.970846311E+04 1.016211080E+02 2.004798613E-03
 -6.022306146E-01 -3.971676245E-02 6.971060307E+04 1.015978498E+02 1.925835194E-03
 -5.501448298E-01 -3.643909461E-02 6.971309216E+04 1.015707880E+02 1.717669872E-03
 -5.021948680E-01 -3.342149649E-02 6.971598717E+04 1.015393020E+02 1.342412539E-03
 -4.580685338E-01 -3.064434615E-02 6.971935387E+04 1.015026720E+02 7.545503859E-04
 -4.174764198E-01 -2.808945463E-02 6.972326832E+04 1.014600648E+02 -1.002915045E-04
 -3.801502820E-01 -2.573996375E-02 6.972781837E+04 1.014105165E+02 -1.286792149E-03
 -3.458415300E-01 -2.358025111E-02 6.973310536E+04 1.013529131E+02 -2.881730475E-03
 -3.143198222E-01 -2.159584169E-02 6.973924602E+04 1.012859691E+02 -4.976029416E-03
 -2.853717603E-01 -1.977332567E-02 6.974637467E+04 1.012082016E+02 -7.677145985E-03
 -2.587996746E-01 -1.810028191E-02 6.975464560E+04 1.011179027E+02 -1.111210947E-02
 -2.344204951E-01 -1.656520690E-02 6.976423588E+04 1.010131056E+02 -1.543126155E-02
 -2.120647026E-01 -1.515744860E-02 6.977534850E+04 1.008915473E+02 -2.081288496E-02
 -1.915753528E-01 -1.386714500E-02 6.978821600E+04 1.007506243E+02 -2.746896108E-02
 -1.728071695E-01 -1.268516696E-02 6.980310458E+04 1.005873403E+02 -3.565247750E-02
 -1.556257023E-01 -1.160306511E-02 6.982031894E+04 1.003982462E+02 -4.566715162E-02
 -1.399065434E-01 -1.061302053E-02 6.984020794E+04 1.001793642E+02 -5.787742900E-02
 -1.255345998E-01 -9.707798912E-03 6.986317110E+04 9.992610625E+01 -7.273267366E-02
 -1.124034173E-01 -8.880707982E-03 6.988966574E+04 9.963316970E+01 -9.077966788E-02
 -1.004145527E-01 -8.125558000E-03 6.992021735E+04 9.929439147E+01 -1.126897352E-01
 -8.947698982E-02 -7.436625080E-03 6.995543248E+04 9.890257780E+01 -1.393123103E-01
 -7.950659806E-02 -6.808617155E-03 6.999601159E+04 9.844930883E+01 -1.717177651E-01
 -7.042562872E-02 -6.236642402E-03 7.004276595E+04 9.792466798E+01 -2.112853929E-01
 -6.216224775E-02 -5.716179951E-03 7.009664241E+04 9.731687568E+01 -2.597757509E-01
 -5.465010167E-02 -5.243052721E-03 7.015875169E+04 9.661180810E+01 -3.195663652E-01
 -4.782791461E-02 -4.813402212E-03 7.023040674E+04 9.579238954E+01 -3.936670696E-01
 -4.163911419E-02 -4.423665139E-03 7.031315980E+04 9.483784113E+01 -4.850598662E-01
 -3.603700663E-02 -4.030257748E-03 7.040890108E+04 9.372220336E+01 -5.845420851E-01
 -3.099098590E-02 -3.493565400E-03 7.052008805E+04 9.241146695E+01 -6.790653049E-01
 -2.643075090E-02 -3.008565355E-03 7.064956096E+04 9.086199840E+01 -7.781119678E-01
 -2.231554270E-02 -2.570919276E-03 7.080098199E+04 8.902031612E+01 -8.936172909E-01
 -1.860778406E-02 -2.176627119E-03 7.097888639E+04 8.680447576E+01 -1.031325873E+00
 -1.527284191E-02 -1.822001988E-03 7.119002865E+04 8.411634320E+01 -1.192523536E+00
 -1.227880703E-02 -1.503646801E-03 7.144158259E+04 8.077146911E+01 -1.396936405E+00
 -9.596289671E-03 -1.218432627E-03 7.174805064E+04 7.658142740E+01 -1.635779702E+00
 -7.198230053E-03 -9.634785833E-04 7.211774610E+04 7.100477627E+01 -1.986287225E+00
 -5.059722690E-03 -7.361331772E-04 7.258496432E+04 6.371068840E+01 -2.377051973E+00
 -3.157853483E-03 -5.339569717E-04 7.310574851E+04 5.294366074E+01 -3.012307732E+00
 -1.471548739E-03 -3.547064524E-04 7.368145510E+04 4.033767126E+01 -3.681368672E+00
 1.856476775E-05 -1.963187265E-04 7.400380684E+04 3.446258843E+01 -3.875212694E+00
 -4.916318661E+00 -1.667794339E-01 6.969574331E+04 1.017586154E+02 -9.729640684E-05
 -4.541378975E+00 -1.441514392E-01 6.969577745E+04 1.017583114E+02 -7.966027694E-05
 -4.194096455E+00 -1.231922709E-01 6.969584591E+04 1.017576794E+02 -3.528682372E-05
 -3.872484975E+00 -1.037820912E-01 6.969591038E+04 1.017570180E+02 2.763599843E-05
 -3.574698245E+00 -8.580949945E-02 6.969598149E+04 1.017562397E+02 1.064794297E-04
 -3.297379845E+00 -7.774134985E-02 6.969607410E+04 1.017552418E+02 1.950964910E-04
 -3.040364319E+00 -7.181146192E-02 6.969618662E+04 1.017540332E+02 2.985597311E-04
 -2.802518049E+00 -6.632356873E-02 6.969631972E+04 1.017525977E+02 4.287483844E-04
 -2.582453550E+00 -6.124568348E-02 6.969647753E+04 1.017508936E+02 5.909293481E-04
 -2.378881602E+00 -5.654808456E-02 6.969666372E+04 1.017488818E+02 7.885444429E-04
 -2.190604410E+00 -5.220315781E-02 6.969688216E+04 1.017465195E+02 1.025340095E-03
 -2.016509220E+00 -4.818524948E-02 6.969713771E+04 1.017437536E+02 1.305186449E-03
 -1.855562394E+00 -4.447052948E-02 6.969743612E+04 1.017405219E+02 1.632016693E-03
 -1.706803871E+00 -4.103686395E-02 6.969778402E+04 1.017367524E+02 2.009919007E-03
 -1.569342030E+00 -3.786369668E-02 6.969818918E+04 1.017323607E+02 2.443130942E-03
 -1.442348892E+00 -3.493193872E-02 6.969866069E+04 1.017272477E+02 2.935981883E-03
 -1.325055664E+00 -3.222386561E-02 6.969920918E+04 1.017212980E+02 3.492839979E-03
 -1.216748585E+00 -2.972302170E-02 6.969984709E+04 1.017143764E+02 4.118044167E-03
 -1.116765059E+00 -2.741413113E-02 6.970058892E+04 1.017063250E+02 4.815809761E-03
 -1.024490061E+00 -2.528301493E-02 6.970145162E+04 1.016969595E+02 5.590104635E-03
 -9.393527844E-01 -2.331651391E-02 6.970245498E+04 1.016860646E+02 6.444497558E-03
 -8.608235281E-01 -2.150241687E-02 6.970362205E+04 1.016733892E+02 7.381968386E-03
 -7.884107950E-01 -1.982939376E-02 6.970497970E+04 1.016586407E+02 8.404668663E-03
 -7.216585936E-01 -1.828693357E-02 6.970655923E+04 1.016414780E+02 9.513650595E-03
 -6.601439270E-01 -1.686528641E-02 6.970839703E+04 1.016215043E+02 1.070855161E-02
 -6.034744565E-01 -1.555540971E-02 6.971053540E+04 1.015982582E+02 1.198719902E-02
 -5.512863284E-01 -1.434891811E-02 6.971302344E+04 1.015712034E+02 1.334512152E-02
 -5.032421518E-01 -1.323803681E-02 6.971591806E+04 1.015397179E+02 1.477495074E-02
 -4.590291177E-01 -1.221555821E-02 6.971928519E+04 1.015030804E+02 1.626569538E-02
 -4.183572497E-01 -1.127480151E-02 6.972320104E+04 1.014604559E+02 1.780191340E-02
 -3.809577765E-01 -1.040957515E-02 6.972775365E+04 1.014108782E+02 1.936271326E-02
 -3.465816191E-01 -9.614141817E-03 6.973304459E+04 1.013532314E+02 2.092047114E-02
 -3.149979832E-01 -8.883185941E-03 6.973919083E+04 1.012862268E+02 2.243933008E-02
 -2.859930508E-01 -8.211783371E-03 6.974632695E+04 1.012083790E+02 2.387338713E-02
 -2.593687637E-01 -7.595373217E-03 6.975460758E+04 1.011179760E+02 2.516432896E-02
 -2.349416921E-01 -7.029731633E-03 6.976421017E+04 1.010130473E+02 2.623847004E-02
 -2.125419836E-01 -6.510947427E-03 6.977533816E+04 1.008913250E+02 2.700300566E-02
 -1.920123852E-01 -6.035399386E-03 6.978822460E+04 1.007501996E+02 2.734134478E-02
 -1.732073355E-01 -5.599735191E-03 6.980313632E+04 1.005866683E+02 2.710700613E-02
 -1.559921196E-01 -5.200851823E-03 6.982037877E+04 1.003972735E+02 2.611598849E-02
 -1.402420851E-01 -4.835877368E-03 6.984030175E+04 1.001780281E+02 2.413817275E-02
 -1.258419128E-01 -4.502154119E-03 6.986330593E+04 9.992432934E+01 2.087717137E-02
 -1.126849395E-01 -4.197222898E-03 6.988985019E+04 9.963085719E+01 1.596092816E-02
 -1.006725282E-01 -3.918808518E-03 6.992046201E+04 9.929143102E+01 8.916098735E-03
 -8.971348408E-02 -3.664806310E-03 6.995575032E+04 9.889883167E+01 -8.748588180E-04
 -7.972351101E-02 -3.433269633E-03 6.999641882E+04 9.844460254E+01 -1.420716051E-02
 -7.062470755E-02 -3.222398322E-03 7.004328343E+04 9.791877990E+01 -3.213167785E-02
 -6.234509848E-02 -3.030527973E-03 7.009729683E+04 9.730951546E+01 -5.602443402E-02
 -5.481819994E-02 -2.856120045E-03 7.015957839E+04 9.660260947E+01 -8.777392312E-02
 -4.798261562E-02 -2.697752672E-03 7.023144956E+04 9.578083778E+01 -1.297907550E-01
 -4.178166201E-02 -2.554112173E-03 7.031447180E+04 9.482345873E+01 -1.844243516E-01
 -3.616719062E-02 -2.387792853E-03 7.041049521E+04 9.370481191E+01 -2.427975243E-01
 -3.110371511E-02 -2.072871625E-03 7.052190262E+04 9.239166164E+01 -2.925485539E-01
 -2.652770587E-02 -1.788292430E-03 7.065157436E+04 9.084023153E+01 -3.414658260E-01
 -2.239826295E-02 -1.531508315E-03 7.080322466E+04 8.899608150E+01 -3.996272631E-01
 -1.867767911E-02 -1.300170777E-03 7.098141713E+04 8.677746871E+01 -4.702789420E-01
 -1.533120146E-02 -1.092115061E-03 7.119286240E+04 8.408581736E+01 -5.540504763E-01
 -1.232681038E-02 -9.053465082E-04 7.144487346E+04 8.073689123E+01 -6.630840517E-01
 -9.635014448E-03 -7.380278772E-04 7.175174837E+04 7.654149013E+01 -7.921553263E-01
 -7.228660276E-03 -5.884675666E-04 7.212232172E+04 7.095654466E+01 -9.902956638E-01
 -5.082756215E-03 -4.551086805E-04 7.258996524E+04 6.366096355E+01 -1.218041367E+00
 -3.174308895E-03 -3.365188548E-04 7.311218728E+04 5.286779822E+01 -1.575397235E+00
 -1.482171719E-03 -2.313807562E-04 7.368918263E+04 4.026511561E+01 -2.136944644E+00
 1.309555987E-05 -1.384829409E-04 7.401101554E+04 3.442281746E+01 -2.435255748E+00
 -4.919121367E+00 4.110405248E-02 6.969573844E+04 1.017586303E+02 8.866596947E-05
 -4.543634518E+00 4.552685316E-02 6.969577127E+04 1.017583330E+02 1.297997102E-04
 -4.195845210E+00 4.962371959E-02 6.969583717E+04 1.017577136E+02 2.300512049E-04
 -3.873764415E+00 5.341805346E-02 6.969589919E+04 1.017570642E+02 3.584757666E-04
 -3.575543150E+00 5.693160944E-02 6.969596770E+04 1.017562996E+02 5.074264844E-04
 -3.298114331E+00 5.353039598E-02 6.969605747E+04 1.017553168E+02 6.773762171E-04
 -3.041046147E+00 4.924473227E-02 6.969616704E+04 1.017541242E+02 8.757795044E-04
 -2.803151155E+00 4.527899111E-02 6.969629703E+04 1.017527068E+02 1.113696087E-03
 -2.583041585E+00 4.161001116E-02 6.969645157E+04 1.017510227E+02 1.398055555E-03
 -2.379427952E+00 3.821627163E-02 6.969663435E+04 1.017490331E+02 1.735009790E-03
 -2.191112212E+00 3.507777805E-02 6.969684920E+04 1.017466954E+02 2.131102307E-03
 -2.016981387E+00 3.217595581E-02 6.969710098E+04 1.017439567E+02 2.593423730E-03
 -1.856001622E+00 2.949355104E-02 6.969739542E+04 1.017407550E+02 3.129732746E-03
 -1.707212661E+00 2.701453829E-02 6.969773912E+04 1.017370184E+02 3.748546244E-03
 -1.569722697E+00 2.472403459E-02 6.969813983E+04 1.017326628E+02 4.459218590E-03
 -1.442703585E+00 2.260821939E-02 6.969860662E+04 1.017275895E+02 5.272010989E-03
 -1.325386371E+00 2.065426004E-02 6.969915012E+04 1.017216830E+02 6.198155576E-03
 -1.217057147E+00 1.885024241E-02 6.969978272E+04 1.017148086E+02 7.249918809E-03
 -1.117053182E+00 1.718510630E-02 6.970051893E+04 1.017068084E+02 8.440662840E-03
 -1.024759324E+00 1.564858534E-02 6.970137567E+04 1.016974984E+02 9.784893731E-03
 -9.396046506E-01 1.423115099E-02 6.970237271E+04 1.016866634E+02 1.129830160E-02
 -8.610593506E-01 1.292396051E-02 6.970353311E+04 1.016740525E+02 1.299778614E-02
 -7.886318264E-01 1.171880847E-02 6.970488371E+04 1.016593732E+02 1.490145821E-02
 -7.218659928E-01 1.060808168E-02 6.970645582E+04 1.016422844E+02 1.702862566E-02
 -6.603387662E-01 9.584717203E-03 6.970828582E+04 1.016223893E+02 1.939975953E-02
 -6.036577274E-01 8.642163410E-03 6.971041603E+04 1.015992265E+02 2.203640996E-02
 -5.514589480E-01 7.774343624E-03 6.971289555E+04 1.015722596E+02 2.496105883E-02
 -5.034049680E-01 6.975622416E-03 6.971578132E+04 1.015408662E+02 2.819689033E-02
 -4.591829143E-01 6.240774219E-03 6.971913930E+04 1.015043247E+02 3.176745415E-02
 -4.185027509E-01 5.564954179E-03 6.972304577E+04 1.014617994E+02 3.569625482E-02
 -3.810956515E-01 4.943671054E-03 6.972758882E+04 1.014123238E+02 4.000621221E-02
 -3.467124861E-01 4.372762038E-03 6.973287008E+04 1.013547807E+02 4.471888202E-02
 -3.151224129E-01 3.848369370E-03 6.973900665E+04 1.012878807E+02 4.985348486E-02
 -2.861115703E-01 3.366918609E-03 6.974613322E+04 1.012101365E+02 5.542567417E-02
 -2.594818594E-01 2.925098454E-03 6.975440458E+04 1.011198349E+02 6.144585154E-02
 -2.350498130E-01 2.519842007E-03 6.976399838E+04 1.010150028E+02 6.791697921E-02
 -2.126455436E-01 2.148309357E-03 6.977511829E+04 1.008933698E+02 7.483173772E-02
 -1.921117664E-01 1.807871419E-03 6.978799767E+04 1.007523231E+02 8.216886673E-02
 -1.733028897E-01 1.496094902E-03 6.980290371E+04 1.005888561E+02 8.988853304E-02
 -1.560841714E-01 1.210728344E-03 6.982014231E+04 1.003995056E+02 9.792622655E-02
 -1.403309334E-01 9.496891276E-04 6.984006381E+04 1.001802799E+02 1.061875188E-01
 -1.259278330E-01 7.110513941E-04 6.986306958E+04 9.992656598E+01 1.145282772E-01
 -1.127681850E-01 4.930347980E-04 6.988961952E+04 9.963303248E+01 1.227493449E-01
 -1.007533323E-01 2.939940308E-04 6.992024242E+04 9.929348912E+01 1.305772679E-01
 -8.979206143E-02 1.124090609E-04 6.995554864E+04 9.890070113E+01 1.376272864E-01
 -7.980005898E-02 -5.312396585E-05 6.999624385E+04 9.844618869E+01 1.433789680E-01
 -7.069940760E-02 -2.039012103E-04 7.004314695E+04 9.791995886E+01 1.471114272E-01
 -6.241811734E-02 -3.411190524E-04 7.009721422E+04 9.731011896E+01 1.478481714E-01
 -5.488969076E-02 -4.658814655E-04 7.015957068E+04 9.660242154E+01 1.441962668E-01
 -4.805271903E-02 -5.792068880E-04 7.023154316E+04 9.577954117E+01 1.343488598E-01
 -4.185050705E-02 -6.820346256E-04 7.031469967E+04 9.482077077E+01 1.165659285E-01
 -3.623354176E-02 -7.431500732E-04 7.041086182E+04 9.370066832E+01 9.933837912E-02
 -3.116154493E-02 -6.503046156E-04 7.052235663E+04 9.238657830E+01 9.437798669E-02
 -2.657783490E-02 -5.664216534E-04 7.065208739E+04 9.083463473E+01 9.565004509E-02
 -2.244144283E-02 -4.907480560E-04 7.080380734E+04 8.898976429E+01 9.475596389E-02
 -1.871459800E-02 -4.225891148E-04 7.098209045E+04 8.677036874E+01 9.103187423E-02
 -1.536248904E-02 -3.613042942E-04 7.119362265E+04 8.407775354E+01 8.392262412E-02
 -1.235304241E-02 -3.063032749E-04 7.144578143E+04 8.072774737E+01 6.998569450E-02
 -9.656717046E-03 -2.570422688E-04 7.175276640E+04 7.653112335E+01 4.735619679E-02
 -7.246313853E-03 -2.130205841E-04 7.212365530E+04 7.094322434E+01 2.628544073E-03
 -5.096799115E-03 -1.737774219E-04 7.259135051E+04 6.365335512E+01 -7.835759772E-02
 -3.185140759E-03 -1.388888730E-04 7.311392772E+04 5.284368776E+01 -1.480648649E-01
 -1.490156593E-03 -1.079650562E-04 7.369269628E+04 4.029389793E+01 -5.692959456E-01
 7.626351982E-06 -8.064715534E-05 7.401567796E+04 3.452890823E+01 -9.701231854E-01
 -4.913313371E+00 2.489252871E-01 6.969573103E+04 1.017586645E+02 2.739912392E-04
 -4.537939439E+00 2.351477036E-01 6.969576270E+04 1.017583717E+02 3.379809196E-04
 -4.190254732E+00 2.223867234E-01 6.969582568E+04 1.017577666E+02 4.926690644E-04
 -3.868270820E+00 2.105693379E-01 6.969588470E+04 1.017571346E+02 6.858688059E-04
 -3.570139271E+00 1.996276796E-01 6.969595053E+04 1.017563862E+02 9.049974049E-04
 -3.293085309E+00 1.847598712E-01 6.969603722E+04 1.017554229E+02 1.156130983E-03
 -3.036413682E+00 1.702619362E-01 6.969614336E+04 1.017542527E+02 1.449080484E-03
 -2.798885680E+00 1.568455973E-01 6.969626973E+04 1.017528598E+02 1.794158078E-03
 -2.579115671E+00 1.444325625E-01 6.969642044E+04 1.017512029E+02 2.200000560E-03
 -2.375816159E+00 1.329500850E-01 6.969659911E+04 1.017492438E+02 2.675490693E-03
 -2.187790948E+00 1.223305768E-01 6.969680957E+04 1.017469401E+02 3.229986659E-03
 -2.013928773E+00 1.125112492E-01 6.969705666E+04 1.017442392E+02 3.873812937E-03
 -1.853197375E+00 1.034337773E-01 6.969734605E+04 1.017410797E+02 4.618554268E-03
 -1.704637978E+00 9.504398871E-02 6.969768430E+04 1.017373901E+02 5.477152009E-03
 -1.567360152E+00 8.729157254E-02 6.969807912E+04 1.017330868E+02 6.464074079E-03
 -1.440537024E+00 8.012980927E-02 6.969853953E+04 1.017280716E+02 7.595506691E-03
 -1.323400831E+00 7.351531893E-02 6.969907611E+04 1.017222297E+02 8.889538686E-03
 -1.215238764E+00 6.740782670E-02 6.969970119E+04 1.017154269E+02 1.036636127E-02
 -1.115389113E+00 6.176994476E-02 6.970042921E+04 1.017075061E+02 1.204848184E-02
 -1.023237676E+00 5.656696922E-02 6.970127705E+04 1.016982838E+02 1.396094046E-02
 -9.382144089E-01 5.176669111E-02 6.970226440E+04 1.016875458E+02 1.613154293E-02
 -8.597903199E-01 4.733922048E-02 6.970341424E+04 1.016750418E+02 1.859110077E-02
 -7.874745687E-01 4.325682270E-02 6.970475337E+04 1.016604801E+02 2.137367430E-02
 -7.208117735E-01 3.949376617E-02 6.970631298E+04 1.016435207E+02 2.451681643E-02
 -6.593795031E-01 3.602618058E-02 6.970812941E+04 1.016237674E+02 2.806182114E-02
 -6.027859438E-01 3.283192506E-02 6.971024487E+04 1.016007597E+02 3.205394430E-02
 -5.506677284E-01 2.989046553E-02 6.971270839E+04 1.015739621E+02 3.654259238E-02
 -5.026879174E-01 2.718276063E-02 6.971557685E+04 1.015427532E+02 4.158146286E-02
 -4.585341202E-01 2.469115562E-02 6.971891612E+04 1.015064120E+02 4.722859078E-02
 -4.179167483E-01 2.239928368E-02 6.972280240E+04 1.014641037E+02 5.354636096E-02
 -3.805673901E-01 2.029197415E-02 6.972732373E+04 1.014148622E+02 6.060143919E-02
 -3.462372997E-01 1.835516729E-02 6.973258169E+04 1.013575712E+02 6.846446920E-02