TITLE     = "fluent22.1.0  build-id: 10213"
VARIABLES = "X"
"Y"
"Pressure"
"X Velocity"
"Y Velocity"
DATASETAUXDATA Common.DensityVar="23"
DATASETAUXDATA Common.PressureVar="3"
DATASETAUXDATA Common.TemperatureVar="12"
DATASETAUXDATA Common.TurbulentDynamicViscosityVar="17"
DATASETAUXDATA Common.UVar="5"
DATASETAUXDATA Common.VectorVarsAreVelocity="TRUE"
DATASETAUXDATA Common.ViscosityVar="25"
DATASETAUXDATA Common.VVar="7"
ZONE T="fluid"
 STRANDID=1, SOLUTIONTIME=0.275
 Nodes=10240, Elements=10080, ZONETYPE=FEQuadrilateral
 DATAPACKING=POINT
 DT=(DOUBLE DOUBLE DOUBLE DOUBLE DOUBLE )
 -4.856290020E+00 -7.872354469E-01 6.969575376E+04 1.017586395E+02 -6.014803773E-04
 -4.486948998E+00 -7.102372678E-01 6.969579276E+04 1.017583046E+02 -6.520469995E-04
 -4.884823481E+00 -5.813004056E-01 6.969575345E+04 1.017586119E+02 -4.248397478E-04
 -4.512962804E+00 -5.223581618E-01 6.969579096E+04 1.017582859E+02 -4.446905818E-04
 -4.144852118E+00 -6.389184498E-01 6.969586855E+04 1.017576385E+02 -7.478418118E-04
 -4.168532143E+00 -4.677634015E-01 6.969586467E+04 1.017576266E+02 -4.776016450E-04
 -3.828042918E+00 -5.728711561E-01 6.969593911E+04 1.017569600E+02 -8.289589034E-04
 -3.849561688E+00 -4.172039299E-01 6.969593347E+04 1.017569490E+02 -4.937460010E-04
 -3.534702682E+00 -5.117162600E-01 6.969601795E+04 1.017561512E+02 -9.098591746E-04
 -3.554220314E+00 -3.703895316E-01 6.969600988E+04 1.017561465E+02 -5.029535284E-04
 -3.260624233E+00 -4.694248976E-01 6.969611816E+04 1.017551255E+02 -1.015700999E-03
 -3.278581628E+00 -3.394555216E-01 6.969610792E+04 1.017551246E+02 -5.245049601E-04
 -3.006459731E+00 -4.330151858E-01 6.969623776E+04 1.017538927E+02 -1.141887621E-03
 -3.023022091E+00 -3.131598085E-01 6.969622569E+04 1.017538933E+02 -5.538890921E-04
 -2.771251816E+00 -3.993207446E-01 6.969637813E+04 1.017524294E+02 -1.274991541E-03
 -2.786523198E+00 -2.888250254E-01 6.969636423E+04 1.017524321E+02 -5.773368255E-04
 -2.553628399E+00 -3.681450466E-01 6.969654325E+04 1.017506951E+02 -1.414234271E-03
 -2.567705326E+00 -2.663092445E-01 6.969652758E+04 1.017506998E+02 -5.921561202E-04
 -2.352314566E+00 -3.393054830E-01 6.969673664E+04 1.017486517E+02 -1.562533200E-03
 -2.365286562E+00 -2.454805897E-01 6.969671935E+04 1.017486580E+02 -5.989483270E-04
 -2.166125809E+00 -3.126323939E-01 6.969696222E+04 1.017462563E+02 -1.723604966E-03
 -2.178075898E+00 -2.262165361E-01 6.969694344E+04 1.017462633E+02 -5.985989474E-04
 -1.993961723E+00 -2.879681652E-01 6.969722484E+04 1.017434560E+02 -1.902474651E-03
 -2.004966888E+00 -2.084032582E-01 6.969720474E+04 1.017434628E+02 -5.928000415E-04
 -1.834800138E+00 -2.651663881E-01 6.969753017E+04 1.017401897E+02 -2.105628699E-03
 -1.844931747E+00 -1.919350223E-01 6.969750895E+04 1.017401946E+02 -5.842453645E-04
 -1.687691644E+00 -2.440910761E-01 6.969788477E+04 1.017363859E+02 -2.341157023E-03
 -1.697015858E+00 -1.767136219E-01 6.969786270E+04 1.017363868E+02 -5.766344953E-04
 -1.551754513E+00 -2.246159360E-01 6.969829634E+04 1.017319610E+02 -2.619048610E-03
 -1.560332650E+00 -1.626478503E-01 6.969827372E+04 1.017319554E+02 -5.748597585E-04
 -1.426169954E+00 -2.066236894E-01 6.969877386E+04 1.017268175E+02 -2.951561401E-03
 -1.434058837E+00 -1.496530116E-01 6.969875106E+04 1.017268018E+02 -5.852790324E-04
 -1.310177701E+00 -1.900054410E-01 6.969932784E+04 1.017208410E+02 -3.353620583E-03
 -1.317429982E+00 -1.376504637E-01 6.969930532E+04 1.017208111E+02 -6.159972170E-04
 -1.203071914E+00 -1.746600906E-01 6.969997054E+04 1.017138984E+02 -3.843284135E-03
 -1.209736367E+00 -1.265671939E-01 6.969994884E+04 1.017138488E+02 -6.771968495E-04
 -1.104197346E+00 -1.604937854E-01 6.970071629E+04 1.017058336E+02 -4.442288149E-03
 -1.110319152E+00 -1.163354239E-01 6.970069607E+04 1.017057580E+02 -7.815326431E-04
 -1.012945797E+00 -1.474194109E-01 6.970158180E+04 1.016964648E+02 -5.176687665E-03
 -1.018566796E+00 -1.068922412E-01 6.970156383E+04 1.016963552E+02 -9.445972525E-04
 -9.287527924E-01 -1.353561163E-01 6.970258660E+04 1.016855796E+02 -6.077574880E-03
 -9.339117263E-01 -9.817925731E-02 6.970257181E+04 1.016854267E+02 -1.185450910E-03
 -8.510945079E-01 -1.242288734E-01 6.970375342E+04 1.016729301E+02 -7.181919095E-03
 -8.558272437E-01 -9.014228866E-02 6.970374290E+04 1.016727228E+02 -1.527240370E-03
 -7.794848990E-01 -1.139680658E-01 6.970510879E+04 1.016582277E+02 -8.533511252E-03
 -7.838246355E-01 -8.273106013E-02 6.970510381E+04 1.016579527E+02 -1.997909403E-03
 -7.134730328E-01 -1.045091069E-01 6.970668358E+04 1.016411358E+02 -1.018396858E-02
 -7.174504937E-01 -7.589892902E-02 6.970668563E+04 1.016407775E+02 -2.630963796E-03
 -6.526406051E-01 -9.579208382E-02 6.970851372E+04 1.016212624E+02 -1.219389395E-02
 -6.562842179E-01 -6.960262828E-02 6.970852453E+04 1.016208029E+02 -3.466347577E-03
 -5.965996297E-01 -8.776142708E-02 6.971064099E+04 1.015981519E+02 -1.463420789E-02
 -5.999356923E-01 -6.380202750E-02 6.971066255E+04 1.015975701E+02 -4.551468669E-03
 -5.449902893E-01 -8.036560235E-02 6.971311388E+04 1.015712747E+02 -1.758762787E-02
 -5.480431245E-01 -5.845991063E-02 6.971314847E+04 1.015705463E+02 -5.942359305E-03
 -4.974789357E-01 -7.355682418E-02 6.971598862E+04 1.015400159E+02 -2.115037513E-02
 -5.002710350E-01 -5.354176910E-02 6.971603888E+04 1.015391132E+02 -7.705013396E-03
 -4.537562301E-01 -6.729078955E-02 6.971933037E+04 1.015036625E+02 -2.543408925E-02
 -4.563083872E-01 -4.901560941E-02 6.971939930E+04 1.015025536E+02 -9.916909241E-03
 -4.135354128E-01 -6.152642999E-02 6.972321451E+04 1.014613887E+02 -3.056785959E-02
 -4.158668473E-01 -4.485177413E-02 6.972330551E+04 1.014600373E+02 -1.266864678E-02
 -3.765506941E-01 -5.622568109E-02 6.972772816E+04 1.014122384E+02 -3.670042380E-02
 -3.786791667E-01 -4.102277537E-02 6.972784507E+04 1.014106035E+02 -1.606579597E-02
 -3.425557579E-01 -5.135326798E-02 6.973297183E+04 1.013551069E+02 -4.400289069E-02
 -3.444976774E-01 -3.750313989E-02 6.973311897E+04 1.013531422E+02 -2.023118199E-02
 -3.113223701E-01 -4.687650600E-02 6.973906134E+04 1.012887183E+02 -5.267191641E-02
 -3.130928926E-01 -3.426926507E-02 6.973924359E+04 1.012863717E+02 -2.530747707E-02
 -2.826390847E-01 -4.276511512E-02 6.974613000E+04 1.012116008E+02 -6.293319825E-02
 -2.842522056E-01 -3.129928490E-02 6.974635279E+04 1.012088139E+02 -3.146015733E-02
 -2.563100403E-01 -3.899104754E-02 6.975433097E+04 1.011220585E+02 -7.504570281E-02
 -2.577786801E-01 -2.857294541E-02 6.975460041E+04 1.011187657E+02 -3.888118412E-02
 -2.321538422E-01 -3.552832731E-02 6.976384004E+04 1.010181387E+02 -8.930680656E-02
 -2.334899257E-01 -2.607148877E-02 6.976416298E+04 1.010142664E+02 -4.779348738E-02
 -2.100025218E-01 -3.235290118E-02 6.977485873E+04 1.008975941E+02 -1.060585160E-01
 -2.112170520E-01 -2.377754563E-02 6.977524287E+04 1.008930597E+02 -5.845642748E-02
 -1.897005708E-01 -2.944250005E-02 6.978761789E+04 1.007578392E+02 -1.256951874E-01
 -1.908036970E-01 -2.167503491E-02 6.978807190E+04 1.007525497E+02 -7.117260071E-02
 -1.711040421E-01 -2.677651005E-02 6.980238174E+04 1.005958991E+02 -1.486729847E-01
 -1.721051236E-01 -1.974907076E-02 6.980291541E+04 1.005897492E+02 -8.629622845E-02
 -1.540797154E-01 -2.433585290E-02 6.981945263E+04 1.004083498E+02 -1.755232289E-01
 -1.549873803E-01 -1.798587604E-02 6.982007711E+04 1.004012200E+02 -1.042450234E-01
 -1.385043210E-01 -2.210287457E-02 6.983917651E+04 1.001912451E+02 -2.068646868E-01
 -1.393265209E-01 -1.637270190E-02 6.983990461E+04 1.001829976E+02 -1.255106256E-01
 -1.242638189E-01 -2.006124191E-02 6.986194918E+04 9.994003508E+01 -2.434349899E-01
 -1.250078793E-01 -1.489775317E-02 6.986279584E+04 9.993051103E+01 -1.506885242E-01
 -1.112527289E-01 -1.819584669E-02 6.988822341E+04 9.964946597E+01 -2.861085741E-01
 -1.119253964E-01 -1.355011891E-02 6.988920612E+04 9.963847924E+01 -1.804917707E-01
 -9.937350838E-02 -1.649271635E-02 6.991851894E+04 9.931344069E+01 -3.359282214E-01
 -9.998099427E-02 -1.231970810E-02 6.991965846E+04 9.930076677E+01 -2.157794094E-01
 -8.853597382E-02 -1.493893125E-02 6.995343465E+04 9.892484640E+01 -3.941770069E-01
 -8.908399442E-02 -1.119718974E-02 6.995475612E+04 9.891021333E+01 -2.576218726E-01
 -7.865676425E-02 -1.352254775E-02 6.999366170E+04 9.847536258E+01 -4.624342301E-01
 -7.915057834E-02 -1.017393743E-02 6.999519537E+04 9.845844520E+01 -3.073490516E-01
 -6.965884227E-02 -1.223252691E-02 7.003999710E+04 9.795521183E+01 -5.427178140E-01
 -7.010328580E-02 -9.241977795E-03 7.004178154E+04 9.793560730E+01 -3.666617123E-01
 -6.147103096E-02 -1.105866820E-02 7.009336746E+04 9.735286751E+01 -6.375522350E-01
 -6.187054926E-02 -8.393942719E-03 7.009545400E+04 9.733001345E+01 -4.377088232E-01
 -5.402758383E-02 -9.991548059E-03 7.015485839E+04 9.665445161E+01 -7.502141703E-01
 -5.438626141E-02 -7.623024972E-03 7.015731232E+04 9.662764454E+01 -5.233353256E-01
 -4.726778554E-02 -9.022462875E-03 7.022575892E+04 9.584331248E+01 -8.847440282E-01
 -4.758937368E-02 -6.922937059E-03 7.022865811E+04 9.581161364E+01 -6.270958412E-01
 -4.113558119E-02 -8.143376020E-03 7.030759781E+04 9.489857898E+01 -1.045304150E+00
 -4.142352355E-02 -6.287873039E-03 7.031103149E+04 9.486111373E+01 -7.525559551E-01
 -3.558745096E-02 -7.298400757E-03 7.040239252E+04 9.379305645E+01 -1.222043157E+00
 -3.584356061E-02 -5.668087251E-03 7.040637134E+04 9.374977359E+01 -8.900556052E-01
 -3.060281654E-02 -6.320502057E-03 7.051277912E+04 9.249101094E+01 -1.401131672E+00
 -3.082384803E-02 -4.910259473E-03 7.051722663E+04 9.244266561E+01 -1.025969331E+00
 -2.609805789E-02 -5.436773998E-03 7.064146053E+04 9.094962572E+01 -1.595433250E+00
 -2.628738837E-02 -4.225415592E-03 7.064638438E+04 9.089639680E+01 -1.171500779E+00
 -2.203291196E-02 -4.639313950E-03 7.079197902E+04 8.911779116E+01 -1.819960627E+00
 -2.219363521E-02 -3.607430676E-03 7.079744417E+04 8.905866319E+01 -1.340209581E+00
 -1.837025869E-02 -3.920835780E-03 7.096877365E+04 8.691313913E+01 -2.084759638E+00
 -1.850520724E-02 -3.050657513E-03 7.097490054E+04 8.684727294E+01 -1.540010338E+00
 -1.507588636E-02 -3.274623957E-03 7.117871171E+04 8.423905594E+01 -2.393112647E+00
 -1.518765198E-02 -2.549891078E-03 7.118556291E+04 8.416476146E+01 -1.773017652E+00
 -1.211827396E-02 -2.694490954E-03 7.142855466E+04 8.091063919E+01 -2.776702915E+00
 -1.220922657E-02 -2.100335545E-03 7.143641726E+04 8.082640566E+01 -2.065211408E+00
 -9.468389280E-03 -2.174737731E-03 7.173334469E+04 7.674264350E+01 -3.225877314E+00
 -9.540694498E-03 -1.697573679E-03 7.174222570E+04 7.664515065E+01 -2.406344447E+00
 -7.099501758E-03 -1.710117061E-03 7.209996998E+04 7.119669448E+01 -3.855813484E+00
 -7.155137073E-03 -1.337538436E-03 7.211063343E+04 7.108089259E+01 -2.894659577E+00
 -4.987008897E-03 -1.295799515E-03 7.256502211E+04 6.392999614E+01 -4.570413036E+00
 -5.027778657E-03 -1.016486601E-03 7.257705751E+04 6.379581950E+01 -3.441105828E+00
 -3.108275364E-03 -9.273418797E-04 7.308086625E+04 5.324202534E+01 -5.689752192E+00
 -3.135824622E-03 -7.309743167E-04 7.309574253E+04 5.306142541E+01 -4.318483657E+00
 -1.442483847E-03 -6.006578180E-04 7.365504800E+04 4.063810740E+01 -6.535621345E+00
 -1.458311149E-03 -4.778343296E-04 7.367058107E+04 4.045605824E+01 -5.059423878E+00
 2.950318352E-05 -3.119902977E-04 7.398119226E+04 3.469669798E+01 -6.575821316E+00
 2.403397564E-05 -2.541545121E-04 7.399447984E+04 3.455125144E+01 -5.153427582E+00
 -4.904860300E+00 -3.743658139E-01 6.969575067E+04 1.017585984E+02 -2.446764005E-04
 -4.531131314E+00 -3.335560936E-01 6.969578660E+04 1.017582848E+02 -2.348822874E-04
 -4.184970174E+00 -2.957563285E-01 6.969585795E+04 1.017576382E+02 -2.059218615E-04
 -3.864397168E+00 -2.607503729E-01 6.969592478E+04 1.017569650E+02 -1.577708348E-04
 -3.567571970E+00 -2.283372989E-01 6.969599861E+04 1.017561721E+02 -9.717193739E-05
 -3.290851749E+00 -2.088177012E-01 6.969609412E+04 1.017551590E+02 -3.610328178E-05
 -3.034340450E+00 -1.926881010E-01 6.969620959E+04 1.017539349E+02 3.038180214E-05
 -2.796960790E+00 -1.777612026E-01 6.969634577E+04 1.017524823E+02 1.156730180E-04
 -2.577328007E+00 -1.639499591E-01 6.969650673E+04 1.017507595E+02 2.243054639E-04
 -2.374155413E+00 -1.511734886E-01 6.969669616E+04 1.017487275E+02 3.581366638E-04
 -2.186247563E+00 -1.393566443E-01 6.969691794E+04 1.017463431E+02 5.190758958E-04
 -2.012493888E+00 -1.284296148E-01 6.969717695E+04 1.017435533E+02 7.087154900E-04
 -1.851862777E+00 -1.183275515E-01 6.969747894E+04 1.017402958E+02 9.281700863E-04
 -1.703396055E+00 -1.089902221E-01 6.969783053E+04 1.017364986E+02 1.178147870E-03
 -1.566203850E+00 -1.003616879E-01 6.969823950E+04 1.017320771E+02 1.458865734E-03
 -1.439459809E+00 -9.239000287E-02 6.969871493E+04 1.017269326E+02 1.769884237E-03
 -1.322396646E+00 -8.502693416E-02 6.969926746E+04 1.017209496E+02 2.109944641E-03
 -1.214302002E+00 -7.822770160E-02 6.969990950E+04 1.017139930E+02 2.476773173E-03
 -1.114514581E+00 -7.195073526E-02 6.970065553E+04 1.017059053E+02 2.866838785E-03
 -1.022420564E+00 -6.615744986E-02 6.970152249E+04 1.016965022E+02 3.275062816E-03
 -9.374502662E-01 -6.081203471E-02 6.970253012E+04 1.016855688E+02 3.694480105E-03
 -8.590750250E-01 -5.588125831E-02 6.970370143E+04 1.016728545E+02 4.115838664E-03
 -7.868043078E-01 -5.133428645E-02 6.970506326E+04 1.016580672E+02 4.527133018E-03
 -7.201830180E-01 -4.714251294E-02 6.970664682E+04 1.016408665E+02 4.913090263E-03
 -6.587889885E-01 -4.327940215E-02 6.970848846E+04 1.016208563E+02 5.254574885E-03
 -6.022306506E-01 -3.972034241E-02 6.971063036E+04 1.015975761E+02 5.527877950E-03
 -5.501448645E-01 -3.644250970E-02 6.971312154E+04 1.015704907E+02 5.703893414E-03
 -5.021949011E-01 -3.342474075E-02 6.971601880E+04 1.015389794E+02 5.747157648E-03
 -4.580685654E-01 -3.064741504E-02 6.971938791E+04 1.015023224E+02 5.614739052E-03
 -4.174764498E-01 -2.809234498E-02 6.972330494E+04 1.014596861E+02 5.255005667E-03
 -3.801503103E-01 -2.574267372E-02 6.972785777E+04 1.014101067E+02 4.606179297E-03
 -3.458415567E-01 -2.358278018E-02 6.973314773E+04 1.013524700E+02 3.594563347E-03
 -3.143198473E-01 -2.159819063E-02 6.973929159E+04 1.012854903E+02 2.132542305E-03
 -2.853717837E-01 -1.977549645E-02 6.974642366E+04 1.012076847E+02 1.162050769E-04
 -2.587996962E-01 -1.810227767E-02 6.975469826E+04 1.011173449E+02 -2.577691197E-03
 -2.344205151E-01 -1.656703187E-02 6.976429248E+04 1.010125040E+02 -6.095436688E-03
 -2.120647209E-01 -1.515910803E-02 6.977540935E+04 1.008908986E+02 -1.061095363E-02
 -1.915753695E-01 -1.386864506E-02 6.978828143E+04 1.007499248E+02 -1.633148837E-02
 -1.728071846E-01 -1.268651465E-02 6.980317497E+04 1.005865859E+02 -2.350488628E-02
 -1.556257160E-01 -1.160426815E-02 6.982039472E+04 1.003974324E+02 -3.242925214E-02
 -1.399065556E-01 -1.061408722E-02 6.984028959E+04 1.001784857E+02 -4.346275109E-02
 -1.255346106E-01 -9.708738022E-03 6.986325919E+04 9.992515702E+01 -5.704776206E-02
 -1.124034269E-01 -8.881528613E-03 6.988976091E+04 9.963214294E+01 -7.372316458E-02
 -1.004145610E-01 -8.126269454E-03 6.992032038E+04 9.929327912E+01 -9.415124431E-02
 -8.947699706E-02 -7.437236732E-03 6.995554428E+04 9.890137018E+01 -1.191711697E-01
 -7.950660428E-02 -6.809138326E-03 6.999613330E+04 9.844799417E+01 -1.498414581E-01
 -7.042563401E-02 -6.237082244E-03 7.004289896E+04 9.792323204E+01 -1.875273790E-01
 -6.216225221E-02 -5.716547339E-03 7.009678843E+04 9.731530057E+01 -2.339726243E-01
 -5.465010539E-02 -5.243356162E-03 7.015891290E+04 9.661007239E+01 -2.915340333E-01
 -4.782791767E-02 -4.813649766E-03 7.023058569E+04 9.579046484E+01 -3.631971919E-01
 -4.163911667E-02 -4.423864356E-03 7.031335936E+04 9.483570509E+01 -4.519138121E-01
 -3.603700860E-02 -4.030415629E-03 7.040912186E+04 9.371984684E+01 -5.484457440E-01
 -3.099098742E-02 -3.493688371E-03 7.052032715E+04 9.240891761E+01 -6.396949027E-01
 -2.643075205E-02 -3.008659217E-03 7.064981767E+04 9.085927331E+01 -7.350764731E-01
 -2.231554354E-02 -2.570989224E-03 7.080125914E+04 8.901738278E+01 -8.464434152E-01
 -1.860778465E-02 -2.176677752E-03 7.097918752E+04 8.680130212E+01 -9.794231570E-01
 -1.527284232E-02 -1.822037333E-03 7.119035763E+04 8.411288453E+01 -1.135139576E+00
 -1.227880730E-02 -1.503670338E-03 7.144194598E+04 8.076767426E+01 -1.333075418E+00
 -9.596289833E-03 -1.218447328E-03 7.174845532E+04 7.657720405E+01 -1.564070586E+00
 -7.198230143E-03 -9.634869513E-04 7.211820867E+04 7.099998119E+01 -1.904792930E+00
 -5.059722733E-03 -7.361372862E-04 7.258549870E+04 6.370519602E+01 -2.282437307E+00
 -3.157853499E-03 -5.339585069E-04 7.310639408E+04 5.293650042E+01 -2.900553393E+00
 -1.471548742E-03 -3.547067406E-04 7.368221011E+04 4.032790848E+01 -3.536976154E+00
 1.856476775E-05 -1.963187265E-04 7.400459572E+04 3.445151539E+01 -3.707663787E+00
 -4.916318661E+00 -1.667794339E-01 6.969574547E+04 1.017586055E+02 -6.100444799E-05
 -4.541378982E+00 -1.441521664E-01 6.969577978E+04 1.017583016E+02 -2.525504330E-05
 -4.194096467E+00 -1.231936416E-01 6.969584845E+04 1.017576690E+02 6.212597453E-05
 -3.872484992E+00 -1.037840281E-01 6.969591296E+04 1.017570062E+02 1.756425253E-04
 -3.574698266E+00 -8.581193149E-02 6.969598407E+04 1.017562267E+02 3.065613748E-04
 -3.297379869E+00 -7.774421393E-02 6.969607676E+04 1.017552271E+02 4.497066305E-04
 -3.040364347E+00 -7.181469790E-02 6.969618948E+04 1.017540161E+02 6.117283860E-04
 -2.802518080E+00 -6.632712085E-02 6.969632278E+04 1.017525784E+02 8.054281160E-04
 -2.582453583E+00 -6.124950051E-02 6.969648078E+04 1.017508720E+02 1.037044757E-03
 -2.378881637E+00 -5.655211951E-02 6.969666718E+04 1.017488578E+02 1.311039919E-03
 -2.190604446E+00 -5.220736754E-02 6.969688584E+04 1.017464929E+02 1.632121374E-03
 -2.016509258E+00 -4.818959446E-02 6.969714164E+04 1.017437241E+02 2.005113722E-03
 -1.855562432E+00 -4.447497347E-02 6.969744032E+04 1.017404894E+02 2.434942581E-03
 -1.706803910E+00 -4.104137379E-02 6.969778851E+04 1.017367165E+02 2.926733998E-03
 -1.569342069E+00 -3.786824203E-02 6.969819399E+04 1.017323210E+02 3.485816260E-03
 -1.442348931E+00 -3.493649187E-02 6.969866584E+04 1.017272040E+02 4.117672981E-03
 -1.325055704E+00 -3.222840127E-02 6.969921472E+04 1.017212499E+02 4.827897413E-03
 -1.216748624E+00 -2.972751687E-02 6.969985304E+04 1.017143235E+02 5.622129696E-03
 -1.116765098E+00 -2.741856490E-02 6.970059533E+04 1.017062670E+02 6.505969649E-03
 -1.024490099E+00 -2.528736840E-02 6.970145853E+04 1.016968958E+02 7.484860823E-03
 -9.393528217E-01 -2.332077004E-02 6.970246243E+04 1.016859947E+02 8.563939090E-03
 -8.608235645E-01 -2.150656040E-02 6.970363009E+04 1.016733126E+02 9.747845950E-03
 -7.884108304E-01 -1.983341114E-02 6.970498838E+04 1.016585567E+02 1.104050971E-02
 -7.216586279E-01 -1.829081286E-02 6.970656861E+04 1.016413861E+02 1.244489003E-02
 -6.601439600E-01 -1.686901724E-02 6.970840717E+04 1.016214039E+02 1.396265985E-02
 -6.034744882E-01 -1.555898324E-02 6.971054636E+04 1.015981485E+02 1.559380622E-02
 -5.512863588E-01 -1.435232695E-02 6.971303529E+04 1.015710836E+02 1.733614482E-02
 -5.032421807E-01 -1.324127504E-02 6.971593088E+04 1.015395872E+02 1.918473259E-02
 -4.590291452E-01 -1.221862129E-02 6.971929905E+04 1.015029378E+02 2.113116186E-02
 -4.183572757E-01 -1.127768630E-02 6.972321605E+04 1.014603003E+02 2.316273344E-02
 -3.809578010E-01 -1.041227984E-02 6.972776991E+04 1.014107087E+02 2.526144167E-02
 -3.465816421E-01 -9.616665916E-03 6.973306219E+04 1.013530465E+02 2.740272884E-02
 -3.149980047E-01 -8.885530216E-03 6.973920990E+04 1.012860253E+02 2.955404835E-02
 -2.859930707E-01 -8.213949810E-03 6.974634763E+04 1.012081594E+02 3.167305566E-02
 -2.593687820E-01 -7.597364967E-03 6.975463001E+04 1.011177367E+02 3.370523014E-02
 -2.349417090E-01 -7.031552932E-03 6.976423451E+04 1.010127864E+02 3.558093570E-02
 -2.125419990E-01 -6.512603526E-03 6.977536459E+04 1.008910403E+02 3.721172675E-02
 -1.920123993E-01 -6.036896457E-03 6.978825334E+04 1.007498887E+02 3.848575843E-02
 -1.732073482E-01 -5.601080225E-03 6.980316762E+04 1.005863284E+02 3.926168624E-02
 -1.559921310E-01 -5.202052521E-03 6.982041292E+04 1.003969014E+02 3.936110680E-02
 -1.402420953E-01 -4.836942018E-03 6.984033908E+04 1.001776200E+02 3.856018752E-02
 -1.258419219E-01 -4.503091471E-03 6.986334683E+04 9.992388087E+01 3.656955580E-02
 -1.126849475E-01 -4.198042031E-03 6.988989513E+04 9.963036323E+01 3.302507546E-02
 -1.006725352E-01 -3.919518714E-03 6.992051153E+04 9.929088550E+01 2.746241820E-02
 -8.971349011E-02 -3.665416919E-03 6.995580510E+04 9.889822714E+01 1.927432264E-02
 -7.972351619E-02 -3.433789953E-03 6.999647972E+04 9.844392980E+01 7.677508847E-03
 -7.062471197E-02 -3.222837477E-03 7.004335150E+04 9.791802776E+01 -8.364763173E-03
 -6.234510221E-02 -3.030894818E-03 7.009737337E+04 9.730866967E+01 -3.021156401E-02
 -5.481820305E-02 -2.856423063E-03 7.015966509E+04 9.660165290E+01 -5.973077609E-02
 -4.798261819E-02 -2.697999903E-03 7.023154839E+04 9.577974724E+01 -9.930856731E-02
 -4.178166410E-02 -2.554311148E-03 7.031458498E+04 9.482221716E+01 -1.512643725E-01
 -3.616719230E-02 -2.387950562E-03 7.041062282E+04 9.370341444E+01 -2.066849299E-01
 -3.110371640E-02 -2.072994499E-03 7.052204149E+04 9.239013729E+01 -2.531598552E-01
 -2.652770685E-02 -1.788386247E-03 7.065172311E+04 9.083860110E+01 -2.984110165E-01
 -2.239826367E-02 -1.531578251E-03 7.080338496E+04 8.899432210E+01 -3.524339739E-01
 -1.867767962E-02 -1.300221418E-03 7.098159110E+04 8.677555885E+01 -4.183536394E-01
 -1.533120181E-02 -1.092150422E-03 7.119305205E+04 8.408372889E+01 -4.966472723E-01
 -1.232681061E-02 -9.053700648E-04 7.144508267E+04 8.073458799E+01 -5.991871225E-01
 -9.635014592E-03 -7.380425964E-04 7.175198089E+04 7.653891871E+01 -7.204505225E-01
 -7.228660357E-03 -5.884759486E-04 7.212258826E+04 7.095357165E+01 -9.086874598E-01
 -5.082756254E-03 -4.551127987E-04 7.259027292E+04 6.365762950E+01 -1.123655836E+00
 -3.174308910E-03 -3.365203948E-04 7.311256514E+04 5.286308125E+01 -1.462885897E+00
 -1.482171722E-03 -2.313810457E-04 7.368963902E+04 4.025713819E+01 -1.991922582E+00
 1.309555987E-05 -1.384829409E-04 7.401149946E+04 3.441285070E+01 -2.268716134E+00
 -4.919121367E+00 4.110405248E-02 6.969573789E+04 1.017586331E+02 1.255792216E-04
 -4.543634524E+00 4.552612650E-02 6.969577067E+04 1.017583354E+02 1.844229954E-04
 -4.195845221E+00 4.962234980E-02 6.969583626E+04 1.017577173E+02 3.270561770E-04
 -3.873764431E+00 5.341611754E-02 6.969589790E+04 1.017570705E+02 5.061671260E-04
 -3.575543169E+00 5.692917833E-02 6.969596620E+04 1.017563078E+02 7.076076789E-04
 -3.298114354E+00 5.352753285E-02 6.969605582E+04 1.017553266E+02 9.321600000E-04
 -3.041046173E+00 4.924149725E-02 6.969616531E+04 1.017541351E+02 1.189080875E-03
 -2.803151183E+00 4.527543998E-02 6.969629523E+04 1.017527187E+02 1.490478441E-03
 -2.583041615E+00 4.160619513E-02 6.969644969E+04 1.017510358E+02 1.844247621E-03
 -2.379427984E+00 3.821223771E-02 6.969663237E+04 1.017490475E+02 2.257565774E-03
 -2.191112246E+00 3.507356936E-02 6.969684712E+04 1.017467112E+02 2.737941800E-03
 -2.016981421E+00 3.217161189E-02 6.969709878E+04 1.017439741E+02 3.293415456E-03
 -1.856001657E+00 2.948910812E-02 6.969739308E+04 1.017407741E+02 3.932733635E-03
 -1.707212696E+00 2.701002953E-02 6.969773663E+04 1.017370395E+02 4.665449784E-03
 -1.569722733E+00 2.471949034E-02 6.969813717E+04 1.017326859E+02 5.502008263E-03
 -1.442703620E+00 2.260366735E-02 6.969860378E+04 1.017276147E+02 6.453824138E-03
 -1.325386406E+00 2.064972550E-02 6.969914708E+04 1.017217106E+02 7.533355818E-03
 -1.217057182E+00 1.884574838E-02 6.969977947E+04 1.017148386E+02 8.754171571E-03
 -1.117053217E+00 1.718067368E-02 6.970051545E+04 1.017068411E+02 1.013101636E-02
 -1.024759358E+00 1.564423303E-02 6.970137196E+04 1.016975338E+02 1.167987168E-02
 -9.396046838E-01 1.422689603E-02 6.970236875E+04 1.016867017E+02 1.341799574E-02
 -8.610593829E-01 1.291981815E-02 6.970352888E+04 1.016740938E+02 1.536394660E-02
 -7.886318576E-01 1.171479227E-02 6.970487922E+04 1.016594176E+02 1.753760979E-02
 -7.218660229E-01 1.060420356E-02 6.970645104E+04 1.016423320E+02 1.996020516E-02
 -6.603387950E-01 9.580987546E-03 6.970828075E+04 1.016224403E+02 2.265424514E-02
 -6.036577549E-01 8.638591056E-03 6.971041066E+04 1.015992808E+02 2.564344298E-02
 -5.514589743E-01 7.770935947E-03 6.971288987E+04 1.015723173E+02 2.895256687E-02
 -5.034049929E-01 6.972385343E-03 6.971577533E+04 1.015409273E+02 3.260722200E-02
 -4.591829378E-01 6.237712273E-03 6.971913301E+04 1.015043891E+02 3.663354706E-02
 -4.185027730E-01 5.562070505E-03 6.972303917E+04 1.014618671E+02 4.105780281E-02
 -3.810956722E-01 4.940967452E-03 6.972758193E+04 1.014123945E+02 4.590579201E-02
 -3.467125053E-01 4.370239000E-03 6.973286292E+04 1.013548541E+02 5.120212776E-02
 -3.151224308E-01 3.846026122E-03 6.973899924E+04 1.012879564E+02 5.696934858E-02
 -2.861115868E-01 3.364753158E-03 6.974612560E+04 1.012102141E+02 6.322667532E-02
 -2.594818745E-01 2.923107651E-03 6.975439678E+04 1.011199138E+02 6.998830718E-02
 -2.350498268E-01 2.518021607E-03 6.976399045E+04 1.010150824E+02 7.726125591E-02
 -2.126455562E-01 2.146654107E-03 6.977511031E+04 1.008934490E+02 8.504256739E-02
 -1.921117778E-01 1.806375144E-03 6.978798973E+04 1.007524006E+02 9.331576093E-02
 -1.733029000E-01 1.494750606E-03 6.980289594E+04 1.005889304E+02 1.020461324E-01
 -1.560841806E-01 1.209528326E-03 6.982013484E+04 1.003995748E+02 1.111747283E-01
 -1.403309416E-01 9.486250977E-04 6.984005684E+04 1.001803417E+02 1.206134356E-01
 -1.259278403E-01 7.101146020E-04 6.986306331E+04 9.992661754E+01 1.302251835E-01
 -1.127681914E-01 4.922161631E-04 6.988961423E+04 9.963307045E+01 1.398187460E-01
 -1.007533379E-01 2.932842738E-04 6.992023845E+04 9.929350938E+01 1.491297226E-01
 -8.979206625E-02 1.117988330E-04 6.995554643E+04 9.890069845E+01 1.577836888E-01
 -7.980006313E-02 -5.364395889E-05 6.999624395E+04 9.844615640E+01 1.652721745E-01
 -7.069941114E-02 -2.043400921E-04 7.004315008E+04 9.791988876E+01 1.708884392E-01
 -6.241812034E-02 -3.414856711E-04 7.009722129E+04 9.731000040E+01 1.736730208E-01
 -5.488969328E-02 -4.661843014E-04 7.015958288E+04 9.660224168E+01 1.722535837E-01
 -4.805272112E-02 -5.794539759E-04 7.023156189E+04 9.577928201E+01 1.648479875E-01
 -4.185050876E-02 -6.822334922E-04 7.031472650E+04 9.482042034E+01 1.497457872E-01
 -3.623354314E-02 -7.433077068E-04 7.041089629E+04 9.370022605E+01 1.354737514E-01
 -3.116154601E-02 -6.504274507E-04 7.052239531E+04 9.238607493E+01 1.337919733E-01
 -2.657783571E-02 -5.665154563E-04 7.065212820E+04 9.083409477E+01 1.387322743E-01
 -2.244144343E-02 -4.908179943E-04 7.080385085E+04 8.898917519E+01 1.419778893E-01
 -1.871459844E-02 -4.226397674E-04 7.098213725E+04 8.676971920E+01 1.429903960E-01
 -1.536248935E-02 -3.613396715E-04 7.119367314E+04 8.407703330E+01 1.413570263E-01
 -1.235304261E-02 -3.063268475E-04 7.144583650E+04 8.072693270E+01 1.339318935E-01
 -9.656717172E-03 -2.570570021E-04 7.175282758E+04 7.653020335E+01 1.190762907E-01
 -7.246313925E-03 -2.130289772E-04 7.212372554E+04 7.094206378E+01 8.438536114E-02
 -5.096799150E-03 -1.737815478E-04 7.259143690E+04 6.365213380E+01 1.578220475E-02
 -3.185140772E-03 -1.388904175E-04 7.311403104E+04 5.284107582E+01 -3.463483491E-02
 -1.490156596E-03 -1.079653471E-04 7.369284702E+04 4.028999990E+01 -4.234688433E-01
 7.626351982E-06 -8.064715534E-05 7.401586977E+04 3.452524556E+01 -8.046429073E-01
 -4.913313371E+00 2.489252871E-01 6.969572785E+04 1.017586784E+02 3.096143510E-04
 -4.537939445E+00 2.351469764E-01 6.969575919E+04 1.017583865E+02 3.918093204E-04
 -4.190254743E+00 2.223853524E-01 6.969582129E+04 1.017577862E+02 5.891287350E-04
 -3.868270834E+00 2.105674000E-01 6.969587954E+04 1.017571600E+02 8.326820652E-04
 -3.570139289E+00 1.996252457E-01 6.969594495E+04 1.017564160E+02 1.104229069E-03
 -3.293085330E+00 1.847570050E-01 6.969603125E+04 1.017554573E+02 1.409974610E-03
 -3.036413706E+00 1.702586979E-01 6.969613704E+04 1.017542915E+02 1.761421607E-03
 -2.798885706E+00 1.568420426E-01 6.969626307E+04 1.017529029E+02 2.169932920E-03
 -2.579115699E+00 1.444287427E-01 6.969641341E+04 1.017512507E+02 2.645100737E-03
 -2.375816189E+00 1.329460471E-01 6.969659169E+04 1.017492967E+02 3.196849106E-03
 -2.187790978E+00 1.223263640E-01 6.969680172E+04 1.017469984E+02 3.835517872E-03
 -2.013928804E+00 1.125069010E-01 6.969704832E+04 1.017443035E+02 4.572382356E-03
 -1.853197407E+00 1.034293300E-01 6.969733717E+04 1.017411505E+02 5.420013154E-03
 -1.704638010E+00 9.503947545E-02 6.969767482E+04 1.017374681E+02 6.392386821E-03
 -1.567360184E+00 8.728702370E-02 6.969806899E+04 1.017331725E+02 7.505060954E-03
 -1.440537057E+00 8.012525259E-02 6.969852869E+04 1.017281657E+02 8.775377361E-03
 -1.323400863E+00 7.351077971E-02 6.969906449E+04 1.017223329E+02 1.022265154E-02
 -1.215238795E+00 6.740332797E-02 6.969968873E+04 1.017155398E+02 1.186837567E-02
 -1.115389144E+00 6.176550744E-02 6.970041584E+04 1.017076295E+02 1.373644697E-02
 -1.023237706E+00 5.656261223E-02 6.970126271E+04 1.016984184E+02 1.585339209E-02
 -9.382144380E-01 5.176243151E-02 6.970224902E+04 1.016876923E+02 1.824857641E-02
 -8.597903480E-01 4.733507354E-02 6.970339775E+04 1.016752010E+02 2.095445452E-02
 -7.874745957E-01 4.325280201E-02 6.970473569E+04 1.016606529E+02 2.400686649E-02
 -7.208117994E-01 3.948988367E-02 6.970629404E+04 1.016437077E+02 2.744528717E-02
 -6.593795278E-01 3.602244666E-02 6.970810912E+04 1.016239697E+02 3.131305290E-02
 -6.027859672E-01 3.282834859E-02 6.971022316E+04 1.016009780E+02 3.565758059E-02
 -5.506677505E-01 2.988705390E-02 6.971268518E+04 1.015741974E+02 4.053056435E-02
 -5.026879382E-01 2.717951980E-02 6.971555205E+04 1.015430062E+02 4.598812597E-02
 -4.585341397E-01 2.468809012E-02 6.971888965E+04 1.015066835E+02 5.209089800E-02
 -4.179167664E-01 2.239639666E-02 6.972277419E+04 1.014643945E+02 5.890402171E-02
 -3.805674069E-01 2.028926743E-02 6.972729370E+04 1.014151731E+02 6.649700782E-02
 -3.462373152E-01 1.835264137E-02 6.973254976E+04 1.013579026E+02 7.494352750E-02
 -3.146960059E-01 1.657348902E-02 6.973865942E+04 1.012912941E+02 8.432108530E-02