TITLE     = "fluent22.1.0  build-id: 10213"
VARIABLES = "X"
"Y"
"Pressure"
"X Velocity"
"Y Velocity"
DATASETAUXDATA Common.DensityVar="23"
DATASETAUXDATA Common.PressureVar="3"
DATASETAUXDATA Common.TemperatureVar="12"
DATASETAUXDATA Common.TurbulentDynamicViscosityVar="17"
DATASETAUXDATA Common.UVar="5"
DATASETAUXDATA Common.VectorVarsAreVelocity="TRUE"
DATASETAUXDATA Common.ViscosityVar="25"
DATASETAUXDATA Common.VVar="7"
ZONE T="fluid"
 STRANDID=1, SOLUTIONTIME=0.3
 Nodes=10240, Elements=10080, ZONETYPE=FEQuadrilateral
 DATAPACKING=POINT
 DT=(DOUBLE DOUBLE DOUBLE DOUBLE DOUBLE )
 -4.856290020E+00 -7.872354469E-01 6.969588533E+04 1.017581215E+02 -1.643581601E-04
 -4.486949102E+00 -7.102446312E-01 6.969592917E+04 1.017577237E+02 5.581602882E-05
 -4.884823481E+00 -5.813004056E-01 6.969585166E+04 1.017582326E+02 3.998092300E-05
 -4.512962903E+00 -5.223654829E-01 6.969589234E+04 1.017578538E+02 2.896828284E-04
 -4.144852314E+00 -6.389323167E-01 6.969601222E+04 1.017569360E+02 5.846919177E-04
 -4.168532329E+00 -4.677771933E-01 6.969597000E+04 1.017571034E+02 8.797820039E-04
 -3.828043193E+00 -5.728907382E-01 6.969608733E+04 1.017561405E+02 1.233510540E-03
 -3.849561949E+00 -4.172234109E-01 6.969604105E+04 1.017563447E+02 1.593345306E-03
 -3.534703026E+00 -5.117408319E-01 6.969617129E+04 1.017552180E+02 1.917327562E-03
 -3.554220640E+00 -3.704139828E-01 6.969612093E+04 1.017554611E+02 2.349476719E-03
 -3.260624638E+00 -4.694538124E-01 6.969627926E+04 1.017540690E+02 2.603015373E-03
 -3.278582013E+00 -3.394843044E-01 6.969622445E+04 1.017543524E+02 3.121297621E-03
 -3.006460189E+00 -4.330478381E-01 6.969640886E+04 1.017526987E+02 3.301186195E-03
 -3.023022526E+00 -3.131923195E-01 6.969634948E+04 1.017530225E+02 3.919544177E-03
 -2.771252320E+00 -3.993565746E-01 6.969655992E+04 1.017510946E+02 4.034342168E-03
 -2.786523676E+00 -2.888607060E-01 6.969649582E+04 1.017514603E+02 4.766016658E-03
 -2.553628942E+00 -3.681835404E-01 6.969673655E+04 1.017492131E+02 4.813065292E-03
 -2.567705840E+00 -2.663475817E-01 6.969666753E+04 1.017496227E+02 5.672977419E-03
 -2.352315141E+00 -3.393461687E-01 6.969694251E+04 1.017470134E+02 5.645394130E-03
 -2.365287108E+00 -2.455211125E-01 6.969686844E+04 1.017474685E+02 6.650842020E-03
 -2.166126411E+00 -3.126748387E-01 6.969718173E+04 1.017444513E+02 6.538750499E-03
 -2.178076469E+00 -2.262588124E-01 6.969710245E+04 1.017449539E+02 7.709824891E-03
 -1.993962348E+00 -2.880119724E-01 6.969745913E+04 1.017414729E+02 7.499315606E-03
 -2.004967478E+00 -2.084468919E-01 6.969737449E+04 1.017420249E+02 8.859430025E-03
 -1.834800779E+00 -2.652111941E-01 6.969778049E+04 1.017380152E+02 8.532030450E-03
 -1.844932353E+00 -1.919796506E-01 6.969769036E+04 1.017386184E+02 1.010839171E-02
 -1.687692299E+00 -2.441365479E-01 6.969815249E+04 1.017340055E+02 9.640441290E-03
 -1.697016475E+00 -1.767589124E-01 6.969805675E+04 1.017346617E+02 1.146463313E-02
 -1.551755177E+00 -2.246617690E-01 6.969858290E+04 1.017293591E+02 1.082652619E-02
 -1.560333274E+00 -1.626934992E-01 6.969848148E+04 1.017300697E+02 1.293523524E-02
 -1.426170622E+00 -2.066696053E-01 6.969908085E+04 1.017239769E+02 1.209041747E-02
 -1.434059465E+00 -1.496987410E-01 6.969897368E+04 1.017247430E+02 1.452623642E-02
 -1.310178372E+00 -1.900511857E-01 6.969965694E+04 1.017177434E+02 1.343012960E-02
 -1.317430611E+00 -1.376960201E-01 6.969954404E+04 1.017185656E+02 1.624249469E-02
 -1.203072582E+00 -1.747054327E-01 6.970032356E+04 1.017105241E+02 1.484121630E-02
 -1.209736994E+00 -1.266123467E-01 6.970020498E+04 1.017114022E+02 1.808746070E-02
 -1.104198011E+00 -1.605385147E-01 6.970109515E+04 1.017021616E+02 1.631630541E-02
 -1.110319774E+00 -1.163799633E-01 6.970097104E+04 1.017030947E+02 2.006284651E-02
 -1.012946454E+00 -1.474633370E-01 6.970198858E+04 1.016924726E+02 1.784455056E-02
 -1.018567410E+00 -1.069359776E-01 6.970185916E+04 1.016934588E+02 2.216825525E-02
 -9.287534403E-01 -1.353990674E-01 6.970302349E+04 1.016812433E+02 1.941103183E-02
 -9.339123305E-01 -9.822201961E-02 6.970288909E+04 1.016822795E+02 2.440079806E-02
 -8.510951441E-01 -1.242706955E-01 6.970422275E+04 1.016682245E+02 2.099599718E-02
 -8.558278358E-01 -9.018392357E-02 6.970408386E+04 1.016693060E+02 2.675454318E-02
 -7.794855215E-01 -1.140086218E-01 6.970561303E+04 1.016531259E+02 2.257396816E-02
 -7.838252136E-01 -8.277143128E-02 6.970547027E+04 1.016542465E+02 2.921984012E-02
 -7.134736396E-01 -1.045482759E-01 6.970722535E+04 1.016356094E+02 2.411283078E-02
 -7.174510560E-01 -7.593791630E-02 6.970707953E+04 1.016367609E+02 3.178268014E-02
 -6.526411945E-01 -9.582976070E-02 6.970909578E+04 1.016152816E+02 2.557276463E-02
 -6.562847628E-01 -6.964012721E-02 6.970894792E+04 1.016164534E+02 3.442390786E-02
 -5.966002000E-01 -8.779752173E-02 6.971126625E+04 1.015916850E+02 2.690499262E-02
 -5.999362184E-01 -6.383794878E-02 6.971111759E+04 1.015928641E+02 3.711825121E-02
 -5.449908390E-01 -8.040003950E-02 6.971378542E+04 1.015642883E+02 2.805038617E-02
 -5.480436304E-01 -5.849417973E-02 6.971363746E+04 1.015654587E+02 3.983323691E-02
 -4.974794636E-01 -7.358954299E-02 6.971670969E+04 1.015324748E+02 2.893785144E-02
 -5.002715198E-01 -5.357432591E-02 6.971656424E+04 1.015336175E+02 4.252797317E-02
 -4.537567350E-01 -6.732174334E-02 6.972010439E+04 1.014955299E+02 2.948251810E-02
 -4.563088498E-01 -4.904640795E-02 6.971996359E+04 1.014966218E+02 4.515174352E-02
 -4.135358937E-01 -6.155558594E-02 6.972404506E+04 1.014526256E+02 2.958380884E-02
 -4.158672868E-01 -4.488078220E-02 6.972391144E+04 1.014536398E+02 4.764244077E-02
 -3.765511502E-01 -5.625301993E-02 6.972861903E+04 1.014028038E+02 2.912333982E-02
 -3.786795825E-01 -4.104997430E-02 6.972849550E+04 1.014037089E+02 4.992481573E-02
 -3.425561885E-01 -5.137878370E-02 6.973392700E+04 1.013449577E+02 2.796233011E-02
 -3.444980691E-01 -3.752852415E-02 6.973381694E+04 1.013457172E+02 5.190836531E-02
 -3.113227747E-01 -4.690020539E-02 6.974008502E+04 1.012778089E+02 2.593859204E-02
 -3.130932598E-01 -3.429284189E-02 6.973999229E+04 1.012783809E+02 5.348491116E-02
 -2.826394629E-01 -4.278701740E-02 6.974722664E+04 1.011998831E+02 2.286321739E-02
 -2.842525481E-01 -3.132107379E-02 6.974715567E+04 1.012002196E+02 5.452580901E-02
 -2.563103920E-01 -3.901118375E-02 6.975550532E+04 1.011094812E+02 1.851663355E-02
 -2.577789980E-01 -2.859297758E-02 6.975546114E+04 1.011095275E+02 5.487854129E-02
 -2.321541674E-01 -3.554673962E-02 6.976509718E+04 1.010046471E+02 1.264381737E-02
 -2.334902191E-01 -2.608980649E-02 6.976508552E+04 1.010043408E+02 5.436256452E-02
 -2.100028208E-01 -3.236964216E-02 6.977620415E+04 1.008831293E+02 4.948505110E-03
 -2.112173213E-01 -2.379420141E-02 6.977623151E+04 1.008823994E+02 5.276432185E-02
 -1.897008439E-01 -2.945763171E-02 6.978905753E+04 1.007423376E+02 -4.914062608E-03
 -1.908039426E-01 -2.169009060E-02 6.978913134E+04 1.007411033E+02 4.983094709E-02
 -1.711042900E-01 -2.679010287E-02 6.980392211E+04 1.005792913E+02 -1.734608703E-02
 -1.721053462E-01 -1.976259653E-02 6.980405085E+04 1.005774600E+02 4.526237636E-02
 -1.540799389E-01 -2.434798464E-02 6.982110095E+04 1.003905592E+02 -3.281969419E-02
 -1.549875807E-01 -1.799794927E-02 6.982129433E+04 1.003880250E+02 3.870033245E-02
 -1.385045209E-01 -2.211362908E-02 6.984094088E+04 1.001721864E+02 -5.188814045E-02
 -1.393267000E-01 -1.638340595E-02 6.984121015E+04 1.001688259E+02 2.971895241E-02
 -1.242639964E-01 -2.007070784E-02 6.986383881E+04 9.991961171E+01 -7.521593420E-02
 -1.250080382E-01 -1.490717609E-02 6.986419721E+04 9.991528168E+01 1.779625042E-02
 -1.112528853E-01 -1.820411611E-02 6.989024890E+04 9.962756758E+01 -1.035952883E-01
 -1.119255363E-01 -1.355835215E-02 6.989071201E+04 9.962209910E+01 2.301920874E-03
 -9.937364489E-02 -1.649988343E-02 6.992069258E+04 9.928993989E+01 -1.379755452E-01
 -9.998111639E-02 -1.232684514E-02 6.992127902E+04 9.928312762E+01 -1.752898574E-02
 -8.853609192E-02 -1.494509090E-02 6.995577087E+04 9.889959494E+01 -1.795318671E-01
 -8.908410008E-02 -1.120332481E-02 6.995650332E+04 9.889118859E+01 -4.265835959E-02
 -7.865686544E-02 -1.352779437E-02 6.999617773E+04 9.844818377E+01 -2.297185341E-01
 -7.915066890E-02 -1.017916422E-02 6.999708357E+04 9.843788340E+01 -7.429050846E-02
 -6.965892808E-02 -1.223695316E-02 7.004271395E+04 9.792589424E+01 -2.904067260E-01
 -7.010336265E-02 -9.246388291E-03 7.004382831E+04 9.791332675E+01 -1.139777642E-01
 -6.147110293E-02 -1.106236392E-02 7.009631068E+04 9.732114901E+01 -3.639504062E-01
 -6.187061378E-02 -8.397626122E-03 7.009768084E+04 9.730578760E+01 -1.636947031E-01
 -5.402764348E-02 -9.994599344E-03 7.015805976E+04 9.662002136E+01 -4.534141144E-01
 -5.438631495E-02 -7.626066775E-03 7.015974623E+04 9.660120331E+01 -2.260723641E-01
 -4.726783434E-02 -9.024951252E-03 7.022925586E+04 9.580576494E+01 -5.625941664E-01
 -4.758941756E-02 -6.925418249E-03 7.023133090E+04 9.578260126E+01 -3.044168999E-01
 -4.113562056E-02 -8.145377817E-03 7.031143338E+04 9.485756488E+01 -6.953185985E-01
 -4.142355902E-02 -6.289869465E-03 7.031397943E+04 9.482923298E+01 -4.019640776E-01
 -3.558748214E-02 -7.299986479E-03 7.040658257E+04 9.374838942E+01 -8.413258644E-01
 -3.584358876E-02 -5.669669127E-03 7.040960468E+04 9.371488126E+01 -5.086579057E-01
 -3.060284046E-02 -6.321735896E-03 7.051729733E+04 9.244293903E+01 -9.862333778E-01
 -3.082386968E-02 -4.911491024E-03 7.052071560E+04 9.240503266E+01 -6.103370880E-01
 -2.609807582E-02 -5.437714807E-03 7.064631145E+04 9.089822512E+01 -1.142237431E+00
 -2.628740465E-02 -4.226355195E-03 7.065012606E+04 9.085615385E+01 -7.175228814E-01
 -2.203292506E-02 -4.640014340E-03 7.079721296E+04 8.906252526E+01 -1.323484348E+00
 -2.219364714E-02 -3.608130570E-03 7.080147660E+04 8.901536649E+01 -8.428990450E-01
 -1.837026796E-02 -3.921342251E-03 7.097445056E+04 8.685344313E+01 -1.538902058E+00
 -1.850521572E-02 -3.051163917E-03 7.097927014E+04 8.680047911E+01 -9.932286830E-01
 -1.507589267E-02 -3.274977129E-03 7.118490645E+04 8.417415893E+01 -1.789813348E+00
 -1.518765778E-02 -2.550244407E-03 7.119032324E+04 8.411382351E+01 -1.168716111E+00
 -1.211827805E-02 -2.694725889E-03 7.143537393E+04 8.083949813E+01 -2.106093937E+00
 -1.220923035E-02 -2.100570721E-03 7.144165381E+04 8.077053445E+01 -1.393387191E+00
 -9.468391758E-03 -2.174884308E-03 7.174093542E+04 7.666388019E+01 -2.472022841E+00
 -9.540696799E-03 -1.697720496E-03 7.174803789E+04 7.658313291E+01 -1.651282889E+00
 -7.099503122E-03 -1.710200395E-03 7.210851230E+04 7.110757914E+01 -3.002450623E+00
 -7.155138347E-03 -1.337621958E-03 7.211718013E+04 7.101057977E+01 -2.039845082E+00
 -4.987009542E-03 -1.295840381E-03 7.257485378E+04 6.383200927E+01 -3.573549509E+00
 -5.027779264E-03 -1.016527586E-03 7.258452518E+04 6.371968814E+01 -2.441979138E+00
 -3.108275595E-03 -9.273571208E-04 7.309202907E+04 5.310958759E+01 -4.521147577E+00
 -3.135824841E-03 -7.309896154E-04 7.310421709E+04 5.295119499E+01 -3.145427226E+00
 -1.442483887E-03 -6.006606728E-04 7.366843885E+04 4.051734249E+01 -5.019680858E+00
 -1.458311188E-03 -4.778371982E-04 7.368087116E+04 4.036881499E+01 -3.545244104E+00
 2.950318352E-05 -3.119902977E-04 7.399624461E+04 3.461931286E+01 -4.793273123E+00
 2.403397564E-05 -2.541545121E-04 7.400607367E+04 3.452006196E+01 -3.380684603E+00
 -4.904860300E+00 -3.743658139E-01 6.969581521E+04 1.017583610E+02 2.444804947E-04
 -4.531131408E+00 -3.335633840E-01 6.969585275E+04 1.017580030E+02 5.227161850E-04
 -4.184970349E+00 -2.957700664E-01 6.969592493E+04 1.017572943E+02 1.171708781E-03
 -3.864397415E+00 -2.607697823E-01 6.969599175E+04 1.017565765E+02 1.946942673E-03
 -3.567572280E+00 -2.283616656E-01 6.969606750E+04 1.017557349E+02 2.771675962E-03
 -3.290852114E+00 -2.088463920E-01 6.969616626E+04 1.017546710E+02 3.626325823E-03
 -3.034340862E+00 -1.927205139E-01 6.969628625E+04 1.017533873E+02 4.522170076E-03
 -2.796961243E+00 -1.777967795E-01 6.969642733E+04 1.017518732E+02 5.479602102E-03
 -2.577328494E+00 -1.639881878E-01 6.969659352E+04 1.017500862E+02 6.512427291E-03
 -2.374155929E+00 -1.512138985E-01 6.969678866E+04 1.017479856E+02 7.633544216E-03
 -2.186248102E+00 -1.393988040E-01 6.969701664E+04 1.017455276E+02 8.855908699E-03
 -2.012494445E+00 -1.284731286E-01 6.969728237E+04 1.017426586E+02 1.019225257E-02
 -1.851863348E+00 -1.183720570E-01 6.969759164E+04 1.017393157E+02 1.165509197E-02
 -1.703396636E+00 -1.090353875E-01 6.969795114E+04 1.017354261E+02 1.325676342E-02
 -1.566204437E+00 -1.004072095E-01 6.969836869E+04 1.017309049E+02 1.500950695E-02
 -1.439460398E+00 -9.243560340E-02 6.969885344E+04 1.017256526E+02 1.692527322E-02
 -1.322397235E+00 -8.507236060E-02 6.969941606E+04 1.017195531E+02 1.901574209E-02
 -1.214302588E+00 -7.827272359E-02 6.970006902E+04 1.017124708E+02 2.129228928E-02
 -1.114515161E+00 -7.199514363E-02 6.970082689E+04 1.017042473E+02 2.376575486E-02
 -1.022421136E+00 -6.620105528E-02 6.970170665E+04 1.016946978E+02 2.644625629E-02
 -9.374508274E-01 -6.085466662E-02 6.970272811E+04 1.016836067E+02 2.934303295E-02
 -8.590755737E-01 -5.592276391E-02 6.970391436E+04 1.016707226E+02 3.246409178E-02
 -7.868048423E-01 -5.137452986E-02 6.970529229E+04 1.016557525E+02 3.581570928E-02
 -7.201835366E-01 -4.718137455E-02 6.970689321E+04 1.016383552E+02 3.940209741E-02
 -6.587894897E-01 -4.331677798E-02 6.970875353E+04 1.016181337E+02 4.322490845E-02
 -6.022311332E-01 -3.975614369E-02 6.971091554E+04 1.015946265E+02 4.728256139E-02
 -5.501453274E-01 -3.647666240E-02 6.971342832E+04 1.015672975E+02 5.156949258E-02
 -5.021953434E-01 -3.345718526E-02 6.971634878E+04 1.015355247E+02 5.607535482E-02
 -4.580689863E-01 -3.067810585E-02 6.971974279E+04 1.014985873E+02 6.078402324E-02
 -4.174768486E-01 -2.812125033E-02 6.972368654E+04 1.014556504E+02 6.567238620E-02
 -3.801506867E-01 -2.576977534E-02 6.972826800E+04 1.014057486E+02 7.070899760E-02
 -3.458419102E-01 -2.360807290E-02 6.973358867E+04 1.013477664E+02 7.585252200E-02
 -3.143201778E-01 -2.162168196E-02 6.973976543E+04 1.012804162E+02 8.104989226E-02
 -2.853720912E-01 -1.979720611E-02 6.974693278E+04 1.012022132E+02 8.623407631E-02
 -2.587999809E-01 -1.812223703E-02 6.975524523E+04 1.011114467E+02 9.132133450E-02
 -2.344207772E-01 -1.658528326E-02 6.976488010E+04 1.010061471E+02 9.620783607E-02
 -2.120649609E-01 -1.517570393E-02 6.977604070E+04 1.008840481E+02 1.007656075E-01
 -1.915755879E-01 -1.388364722E-02 6.978895991E+04 1.007425419E+02 1.048373523E-01
 -1.728073823E-01 -1.269999306E-02 6.980390437E+04 1.005786274E+02 1.082296507E-01
 -1.556258936E-01 -1.161629991E-02 6.982117933E+04 1.003888494E+02 1.107041497E-01
 -1.399067142E-01 -1.062475538E-02 6.984113433E+04 1.001692227E+02 1.119687855E-01
 -1.255347512E-01 -9.718130252E-03 6.986416975E+04 9.991515005E+01 1.116550788E-01
 -1.124035505E-01 -8.889735930E-03 6.989074396E+04 9.962131737E+01 1.093075609E-01
 -1.004146689E-01 -8.133384894E-03 6.992138376E+04 9.928154749E+01 1.043588895E-01
 -8.947709041E-02 -7.443354044E-03 6.995669735E+04 9.888862940E+01 9.607927560E-02
 -7.950668432E-02 -6.814350729E-03 6.999738736E+04 9.843411977E+01 8.353686345E-02
 -7.042570199E-02 -6.241481255E-03 7.004426799E+04 9.790807370E+01 6.551568422E-02
 -6.216230934E-02 -5.720221721E-03 7.009828968E+04 9.729866938E+01 4.044812821E-02
 -5.465015287E-02 -5.246390992E-03 7.016056822E+04 9.659174221E+01 6.193775327E-03
 -4.782795666E-02 -4.816125654E-03 7.023242089E+04 9.577013410E+01 -3.997975987E-02
 -4.163914827E-02 -4.425856815E-03 7.031540357E+04 9.481313164E+01 -1.007009360E-01
 -3.603703375E-02 -4.031994670E-03 7.041137990E+04 9.369493136E+01 -1.663536483E-01
 -3.099100681E-02 -3.494918252E-03 7.052276638E+04 9.238194827E+01 -2.233126640E-01
 -2.643076669E-02 -3.009597960E-03 7.065242787E+04 9.083042696E+01 -2.802882046E-01
 -2.231555431E-02 -2.571688790E-03 7.080406607E+04 8.898630964E+01 -3.482539742E-01
 -1.860779234E-02 -2.177184146E-03 7.098222328E+04 8.676767636E+01 -4.316544502E-01
 -1.527284761E-02 -1.822390817E-03 7.119365497E+04 8.407619774E+01 -5.297854559E-01
 -1.227881076E-02 -1.503905729E-03 7.144556641E+04 8.072739616E+01 -6.599712449E-01
 -9.596291955E-03 -1.218594351E-03 7.175245321E+04 7.653225393E+01 -8.077481213E-01
 -7.198231327E-03 -9.635706360E-04 7.212271326E+04 7.094892211E+01 -1.048330939E+00
 -5.059723302E-03 -7.361783779E-04 7.259054008E+04 6.365135278E+01 -1.282083092E+00
 -3.157853706E-03 -5.339738586E-04 7.311211999E+04 5.284963568E+01 -1.721003432E+00
 -1.471548779E-03 -3.547096228E-04 7.368937727E+04 4.028376414E+01 -2.016266299E+00
 1.856476775E-05 -1.963187265E-04 7.401274234E+04 3.448363592E+01 -1.934684519E+00
 -4.916318661E+00 -1.667794339E-01 6.969577632E+04 1.017585062E+02 4.416237120E-04
 -4.541379070E+00 -1.441594382E-01 6.969581068E+04 1.017581715E+02 7.466886555E-04
 -4.194096633E+00 -1.232073476E-01 6.969587713E+04 1.017575097E+02 1.452562737E-03
 -3.872485226E+00 -1.038033960E-01 6.969593941E+04 1.017568370E+02 2.289372844E-03
 -3.574698559E+00 -8.583625051E-02 6.969601081E+04 1.017560401E+02 3.183057364E-03
 -3.297380214E+00 -7.777285304E-02 6.969610452E+04 1.017550245E+02 4.120433693E-03
 -3.040364736E+00 -7.184705583E-02 6.969621902E+04 1.017537920E+02 5.113199465E-03
 -2.802518508E+00 -6.636264000E-02 6.969635433E+04 1.017523317E+02 6.180534782E-03
 -2.582454043E+00 -6.128766876E-02 6.969651443E+04 1.017506021E+02 7.337872592E-03
 -2.378882124E+00 -5.659246676E-02 6.969670311E+04 1.017485627E+02 8.600735485E-03
 -2.190604954E+00 -5.224946256E-02 6.969692425E+04 1.017461703E+02 9.984893510E-03
 -2.016509783E+00 -4.823304188E-02 6.969718274E+04 1.017433717E+02 1.150627424E-02
 -1.855562969E+00 -4.451941105E-02 6.969748434E+04 1.017401043E+02 1.318118946E-02
 -1.706804455E+00 -4.108646987E-02 6.969783571E+04 1.017362958E+02 1.502642769E-02
 -1.569342619E+00 -3.791369328E-02 6.969824464E+04 1.017318613E+02 1.705935291E-02
 -1.442349483E+00 -3.498202115E-02 6.969872026E+04 1.017267019E+02 1.929782246E-02
 -1.325056254E+00 -3.227375580E-02 6.969927323E+04 1.017207015E+02 2.176034504E-02
 -1.216749170E+00 -2.977246650E-02 6.969991600E+04 1.017137247E+02 2.446629274E-02
 -1.116765637E+00 -2.746290068E-02 6.970066313E+04 1.017056133E+02 2.743565338E-02
 -1.024490629E+00 -2.533090126E-02 6.970153159E+04 1.016961825E+02 3.068901183E-02
 -9.393533407E-01 -2.336332965E-02 6.970254119E+04 1.016852168E+02 3.424769400E-02
 -8.608240706E-01 -2.154799420E-02 6.970371505E+04 1.016724645E+02 3.813356752E-02
 -7.884113219E-01 -1.987358353E-02 6.970508006E+04 1.016576324E+02 4.236881578E-02
 -7.216591034E-01 -1.832960448E-02 6.970666758E+04 1.016403790E+02 4.697592377E-02
 -6.601444183E-01 -1.690632441E-02 6.970851404E+04 1.016203070E+02 5.197742257E-02
 -6.034749281E-01 -1.559471745E-02 6.971066179E+04 1.015969541E+02 5.739543307E-02
 -5.512867794E-01 -1.438641446E-02 6.971316000E+04 1.015697834E+02 6.325127371E-02
 -5.032425813E-01 -1.327365650E-02 6.971606564E+04 1.015381721E+02 6.956508526E-02
 -4.590295251E-01 -1.224925145E-02 6.971944471E+04 1.015013980E+02 7.635525258E-02
 -4.183576344E-01 -1.130653366E-02 6.972337350E+04 1.014586249E+02 8.363755489E-02
 -3.809581384E-01 -1.043932635E-02 6.972794017E+04 1.014088857E+02 9.142426068E-02
 -3.465819579E-01 -9.641906597E-03 6.973324634E+04 1.013510630E+02 9.972317810E-02
 -3.149982989E-01 -8.908972756E-03 6.973940914E+04 1.012838668E+02 1.085363519E-01
 -2.859933436E-01 -8.235614070E-03 6.974656327E+04 1.012058097E+02 1.178583489E-01
 -2.593690339E-01 -7.617282408E-03 6.975486353E+04 1.011151778E+02 1.276741575E-01
 -2.349419402E-01 -7.049765927E-03 6.976448756E+04 1.010099981E+02 1.379565414E-01
 -2.125422101E-01 -6.529164571E-03 6.977563903E+04 1.008879998E+02 1.486629868E-01
 -1.920125909E-01 -6.051867263E-03 6.978855127E+04 1.007465703E+02 1.597316209E-01
 -1.732075212E-01 -5.614530702E-03 6.980349144E+04 1.005827024E+02 1.710755398E-01
 -1.559922861E-01 -5.214059661E-03 6.982076543E+04 1.003929335E+02 1.825761154E-01
 -1.402422335E-01 -4.847588696E-03 6.984072356E+04 1.001732704E+02 1.940755825E-01
 -1.258420443E-01 -4.512465174E-03 6.986376715E+04 9.991910257E+01 2.053585170E-01
 -1.126850550E-01 -4.206233562E-03 6.989035592E+04 9.962510080E+01 2.161443985E-01
 -1.006726290E-01 -3.926620870E-03 6.992101837E+04 9.928507262E+01 2.260641336E-01
 -8.971357126E-02 -3.671523201E-03 6.995636471E+04 9.889178467E+01 2.346199567E-01
 -7.972358581E-02 -3.438993326E-03 6.999710034E+04 9.843676090E+01 2.411554733E-01
 -7.062477114E-02 -3.227229208E-03 7.004404353E+04 9.791001423E+01 2.447838451E-01
 -6.234515202E-02 -3.034563423E-03 7.009814980E+04 9.729966083E+01 2.443236593E-01
 -5.481824453E-02 -2.859453387E-03 7.016054263E+04 9.659146761E+01 2.381233784E-01
 -4.798265234E-02 -2.700472339E-03 7.023254680E+04 9.576813896E+01 2.240529346E-01
 -4.178169185E-02 -2.556301014E-03 7.031572628E+04 9.480900164E+01 2.001115049E-01
 -3.616721446E-02 -2.389527755E-03 7.041190623E+04 9.368853854E+01 1.755970657E-01
 -3.110373356E-02 -2.074223312E-03 7.052343132E+04 9.237390355E+01 1.634377378E-01
 -2.652771985E-02 -1.789324464E-03 7.065320204E+04 9.082122670E+01 1.566073292E-01
 -2.239827328E-02 -1.532277645E-03 7.080496671E+04 8.897555427E+01 1.459885385E-01
 -1.867768652E-02 -1.300727851E-03 7.098329278E+04 8.675518867E+01 1.296856618E-01
 -1.533120658E-02 -1.092504053E-03 7.119488654E+04 8.406140009E+01 1.089487321E-01
 -1.232681376E-02 -9.056056377E-04 7.144708481E+04 8.071001497E+01 7.434592370E-02
 -9.635016534E-03 -7.381897910E-04 7.175416632E+04 7.651115188E+01 3.600982547E-02
 -7.228661450E-03 -5.885597695E-04 7.212504965E+04 7.092195575E+01 -5.127365138E-02
 -5.082756784E-03 -4.551539816E-04 7.259288438E+04 6.362552432E+01 -1.252256746E-01
 -3.174309105E-03 -3.365357949E-04 7.311547672E+04 5.280554792E+01 -2.793225772E-01
 -1.482171758E-03 -2.313839413E-04 7.369398775E+04 4.029158137E+01 -4.317091865E-01
 1.309555987E-05 -1.384829409E-04 7.401694324E+04 3.456598235E+01 -4.309202017E-01
 -4.919121367E+00 4.110405248E-02 6.969573487E+04 1.017586677E+02 6.341285497E-04
 -4.543634607E+00 4.551886057E-02 6.969576605E+04 1.017583588E+02 9.647613851E-04
 -4.195845378E+00 4.960865330E-02 6.969582654E+04 1.017577493E+02 1.726021398E-03
 -3.873764652E+00 5.339676030E-02 6.969588399E+04 1.017571257E+02 2.624222852E-03
 -3.575543446E+00 5.690486978E-02 6.969595087E+04 1.017563761E+02 3.585540194E-03
 -3.298114680E+00 5.349890449E-02 6.969603923E+04 1.017554134E+02 4.602887628E-03
 -3.041046541E+00 4.920915051E-02 6.969614777E+04 1.017542379E+02 5.689919377E-03
 -2.803151587E+00 4.523993240E-02 6.969627679E+04 1.017528375E+02 6.864681448E-03
 -2.583042048E+00 4.156803880E-02 6.969643021E+04 1.017511719E+02 8.144160092E-03
 -2.379428441E+00 3.817190269E-02 6.969661174E+04 1.017492016E+02 9.546464274E-03
 -2.191112723E+00 3.503148688E-02 6.969682525E+04 1.017468837E+02 1.109011767E-02
 -2.016981914E+00 3.212817728E-02 6.969707558E+04 1.017441657E+02 1.279422982E-02
 -1.856002160E+00 2.944468361E-02 6.969736843E+04 1.017409857E+02 1.467891052E-02
 -1.707213206E+00 2.696494676E-02 6.969771042E+04 1.017372719E+02 1.676536762E-02
 -1.569723247E+00 2.467405262E-02 6.969810929E+04 1.017329401E+02 1.907602702E-02
 -1.442704134E+00 2.255815181E-02 6.969857412E+04 1.017278917E+02 2.163468521E-02
 -1.325386918E+00 2.060438491E-02 6.969911551E+04 1.017220114E+02 2.446676027E-02
 -1.217057688E+00 1.880081285E-02 6.969974588E+04 1.017151643E+02 2.759957034E-02
 -1.117053716E+00 1.713635215E-02 6.970047970E+04 1.017071928E+02 3.106227834E-02
 -1.024759847E+00 1.560071455E-02 6.970133392E+04 1.016979127E+02 3.488587529E-02
 -9.396051612E-01 1.418435090E-02 6.970232830E+04 1.016871089E+02 3.910392850E-02
 -8.610598469E-01 1.287839890E-02 6.970348589E+04 1.016745303E+02 4.375238358E-02
 -7.886323069E-01 1.167463446E-02 6.970483357E+04 1.016598843E+02 4.886926873E-02
 -7.218664560E-01 1.056542652E-02 6.970640262E+04 1.016428297E+02 5.449526969E-02
 -6.603392109E-01 9.543694911E-03 6.970822944E+04 1.016229697E+02 6.067372958E-02
 -6.036581527E-01 8.602871295E-03 6.971035637E+04 1.015998422E+02 6.745051531E-02
 -5.514593531E-01 7.736862755E-03 6.971283254E+04 1.015729106E+02 7.487385013E-02
 -5.034053522E-01 6.940018012E-03 6.971571491E+04 1.015415522E+02 8.299450645E-02
 -4.591832772E-01 6.207096009E-03 6.971906947E+04 1.015050448E+02 9.186558069E-02
 -4.185030921E-01 5.533236749E-03 6.972297253E+04 1.014625520E+02 1.015418186E-01
 -3.810959711E-01 4.913934205E-03 6.972751227E+04 1.014131065E+02 1.120792798E-01
 -3.467127839E-01 4.345011184E-03 6.973279035E+04 1.013555902E+02 1.235349693E-01
 -3.151226893E-01 3.822595994E-03 6.973892394E+04 1.012887126E+02 1.359660088E-01
 -2.861118256E-01 3.343100803E-03 6.974604784E+04 1.012109852E+02 1.494285269E-01
 -2.594820940E-01 2.903201558E-03 6.975431694E+04 1.011206928E+02 1.639762451E-01
 -2.350500275E-01 2.499819357E-03 6.976390903E+04 1.010158606E+02 1.796585807E-01
 -2.126457388E-01 2.130103164E-03 6.977502794E+04 1.008942159E+02 1.965186522E-01
 -1.921119429E-01 1.791413762E-03 6.978790720E+04 1.007531433E+02 2.145901460E-01
 -1.733030486E-01 1.481308850E-03 6.980281427E+04 1.005896327E+02 2.338929566E-01
 -1.560843135E-01 1.197529183E-03 6.982005534E+04 1.004002168E+02 2.544280288E-01
 -1.403310598E-01 9.379856838E-04 6.983998115E+04 1.001808988E+02 2.761733257E-01
 -1.259279446E-01 7.007474273E-04 6.986299350E+04 9.992706006E+01 2.990658886E-01
 -1.127682830E-01 4.840304352E-04 6.988955290E+04 9.963336170E+01 3.229983587E-01
 -1.007534177E-01 2.861872125E-04 6.992018886E+04 9.929360390E+01 3.478018345E-01
 -8.979213531E-02 1.056969628E-04 6.995551267E+04 9.890054075E+01 3.732117235E-01
 -7.980012239E-02 -5.884356723E-05 6.999623123E+04 9.844567686E+01 3.988469718E-01
 -7.069946157E-02 -2.087286630E-04 7.004316521E+04 9.791900087E+01 4.241510899E-01
 -6.241816287E-02 -3.451516737E-04 7.009727298E+04 9.730859124E+01 4.483431742E-01
 -5.488972878E-02 -4.692125278E-04 7.015968270E+04 9.660017489E+01 4.702673560E-01
 -4.805275044E-02 -5.819247632E-04 7.023172349E+04 9.577636619E+01 4.884014115E-01
 -4.185053268E-02 -6.842221000E-04 7.031496491E+04 9.481652585E+01 5.013488706E-01
 -3.623356233E-02 -7.448840076E-04 7.041120514E+04 9.369534633E+01 5.180175751E-01
 -3.116156093E-02 -6.516557731E-04 7.052273575E+04 9.238053152E+01 5.506804897E-01
 -2.657784708E-02 -5.674534624E-04 7.065247589E+04 9.082814563E+01 5.940654091E-01
 -2.244145189E-02 -4.915173599E-04 7.080420762E+04 8.898267344E+01 6.407304315E-01
 -1.871460455E-02 -4.231462801E-04 7.098250461E+04 8.676256842E+01 6.914145937E-01
 -1.536249360E-02 -3.616934344E-04 7.119404596E+04 8.406904703E+01 7.473252282E-01
 -1.235304544E-02 -3.065625659E-04 7.144621977E+04 8.071803515E+01 8.080500110E-01
 -9.656718934E-03 -2.572043306E-04 7.175320784E+04 7.651966489E+01 8.758224068E-01
 -7.246314926E-03 -2.131129060E-04 7.212414155E+04 7.092996482E+01 9.434258369E-01
 -5.096799641E-03 -1.738228060E-04 7.259170512E+04 6.363680527E+01 1.016114575E+00
 -3.185140955E-03 -1.389058610E-04 7.311400743E+04 5.285291172E+01 1.095406070E+00
 -1.490156630E-03 -1.079682557E-04 7.369427271E+04 4.063739833E+01 1.141016337E+00
 7.626351982E-06 -8.064715534E-05 7.401883991E+04 3.517813777E+01 1.149000449E+00
 -4.913313371E+00 2.489252871E-01 6.969569071E+04 1.017588451E+02 8.159789862E-04
 -4.537939523E+00 2.351397050E-01 6.969571875E+04 1.017585644E+02 1.171175105E-03
 -4.190254890E+00 2.223716438E-01 6.969577311E+04 1.017580126E+02 1.986136595E-03
 -3.868271043E+00 2.105480235E-01 6.969582543E+04 1.017574423E+02 2.945141716E-03
 -3.570139550E+00 1.996009110E-01 6.969588763E+04 1.017567430E+02 3.974246860E-03
 -3.293085637E+00 1.847283470E-01 6.969597032E+04 1.017558373E+02 5.071449330E-03
 -3.036414052E+00 1.702263190E-01 6.969607241E+04 1.017547245E+02 6.252074719E-03
 -2.798886086E+00 1.568065007E-01 6.969619463E+04 1.017533901E+02 7.533038031E-03
 -2.579116106E+00 1.443905501E-01 6.969634078E+04 1.017517953E+02 8.933045685E-03
 -2.375816618E+00 1.329056741E-01 6.969651447E+04 1.017499019E+02 1.047288973E-02
 -2.187791426E+00 1.222842421E-01 6.969671955E+04 1.017476676E+02 1.217388363E-02
 -2.013929265E+00 1.124634257E-01 6.969696079E+04 1.017450406E+02 1.405838377E-02
 -1.853197877E+00 1.033848637E-01 6.969724382E+04 1.017419600E+02 1.615033196E-02
 -1.704638486E+00 9.499435007E-02 6.969757518E+04 1.017383546E+02 1.847535374E-02
 -1.567360662E+00 8.724154269E-02 6.969796255E+04 1.017341413E+02 2.106097419E-02
 -1.440537534E+00 8.007969326E-02 6.969841492E+04 1.017292224E+02 2.393694095E-02
 -1.323401336E+00 7.346539501E-02 6.969894281E+04 1.017234833E+02 2.713555835E-02
 -1.215239262E+00 6.735834820E-02 6.969955854E+04 1.017167904E+02 3.069197980E-02
 -1.115389603E+00 6.172114172E-02 6.970027650E+04 1.017089869E+02 3.464448954E-02
 -1.023238154E+00 5.651904980E-02 6.970111354E+04 1.016998897E+02 3.903465846E-02
 -9.382148744E-01 5.171984287E-02 6.970208930E+04 1.016892848E+02 4.390822039E-02
 -8.597907707E-01 4.729361141E-02 6.970322675E+04 1.016769223E+02 4.931513068E-02
 -7.874750033E-01 4.321260215E-02 6.970455264E+04 1.016625108E+02 5.530918648E-02
 -7.208121908E-01 3.945106562E-02 6.970609814E+04 1.016457105E+02 6.194935554E-02
 -6.593799020E-01 3.598511424E-02 6.970789955E+04 1.016261254E+02 6.930001206E-02
 -6.027863234E-01 3.279259046E-02 6.970999908E+04 1.016032951E+02 7.743073049E-02
 -5.506680882E-01 2.985294395E-02 6.971244573E+04 1.015766840E+02 8.641663116E-02
 -5.026882568E-01 2.714711748E-02 6.971529637E+04 1.015456708E+02 9.633884797E-02
 -4.585344391E-01 2.465744080E-02 6.971861683E+04 1.015095345E+02 1.072849310E-01
 -4.179170466E-01 2.236753193E-02 6.972248337E+04 1.014674396E+02 1.193485744E-01
 -3.805676678E-01 2.026220541E-02 6.972698402E+04 1.014184198E+02 1.326294281E-01
 -3.462375571E-01 1.832738706E-02 6.973222037E+04 1.013613581E+02 1.472336886E-01
 -3.146962291E-01 1.655003475E-02 6.973830948E+04 1.012949647E+02 1.632736341E-01
 -2.857301521E-01 1.491806471E-02 6.974538610E+04 1.012177517E+02 1.808669014E-01