TITLE     = "fluent22.1.0  build-id: 10213"
VARIABLES = "X"
"Y"
"Pressure"
"X Velocity"
"Y Velocity"
DATASETAUXDATA Common.DensityVar="23"
DATASETAUXDATA Common.PressureVar="3"
DATASETAUXDATA Common.TemperatureVar="12"
DATASETAUXDATA Common.TurbulentDynamicViscosityVar="17"
DATASETAUXDATA Common.UVar="5"
DATASETAUXDATA Common.VectorVarsAreVelocity="TRUE"
DATASETAUXDATA Common.ViscosityVar="25"
DATASETAUXDATA Common.VVar="7"
ZONE T="fluid"
 STRANDID=1, SOLUTIONTIME=0.3075
 Nodes=10240, Elements=10080, ZONETYPE=FEQuadrilateral
 DATAPACKING=POINT
 DT=(DOUBLE DOUBLE DOUBLE DOUBLE DOUBLE )
 -4.856290020E+00 -7.872354469E-01 6.969592849E+04 1.017579575E+02 -1.972335462E-05
 -4.486949142E+00 -7.102468405E-01 6.969597333E+04 1.017575328E+02 2.923486870E-04
 -4.884823481E+00 -5.813004056E-01 6.969588392E+04 1.017581110E+02 1.952304363E-04
 -4.512962941E+00 -5.223676793E-01 6.969592517E+04 1.017577118E+02 5.366901722E-04
 -4.144852389E+00 -6.389364771E-01 6.969605771E+04 1.017566997E+02 1.032371711E-03
 -4.168532401E+00 -4.677813310E-01 6.969600345E+04 1.017569284E+02 1.337185963E-03
 -3.828043299E+00 -5.728966133E-01 6.969613385E+04 1.017558656E+02 1.930097215E-03
 -3.849562051E+00 -4.172292554E-01 6.969607497E+04 1.017561425E+02 2.298567675E-03
 -3.534703159E+00 -5.117482042E-01 6.969621941E+04 1.017549036E+02 2.881784399E-03
 -3.554220768E+00 -3.704213184E-01 6.969615589E+04 1.017552307E+02 3.322085547E-03
 -3.260624795E+00 -4.694624876E-01 6.969632973E+04 1.017537127E+02 3.851624014E-03
 -3.278582163E+00 -3.394929395E-01 6.969626104E+04 1.017540918E+02 4.378288346E-03
 -3.006460366E+00 -4.330576347E-01 6.969646231E+04 1.017522964E+02 4.849951438E-03
 -3.023022696E+00 -3.132020732E-01 6.969638825E+04 1.017527283E+02 5.477227813E-03
 -2.771252515E+00 -3.993673247E-01 6.969661658E+04 1.017506455E+02 5.900407476E-03
 -2.786523862E+00 -2.888714107E-01 6.969653692E+04 1.017511320E+02 6.641653992E-03
 -2.553629152E+00 -3.681950896E-01 6.969679662E+04 1.017487161E+02 7.014917665E-03
 -2.567706041E+00 -2.663590833E-01 6.969671111E+04 1.017492595E+02 7.885184857E-03
 -2.352315363E+00 -3.393583756E-01 6.969700631E+04 1.017464664E+02 8.203214483E-03
 -2.365287320E+00 -2.455332698E-01 6.969691473E+04 1.017470691E+02 9.219953492E-03
 -2.166126644E+00 -3.126875735E-01 6.969724957E+04 1.017438518E+02 9.474825695E-03
 -2.178076691E+00 -2.262714959E-01 6.969715168E+04 1.017445164E+02 1.065828788E-02
 -1.993962589E+00 -2.880251160E-01 6.969753135E+04 1.017408178E+02 1.083842304E-02
 -2.004967708E+00 -2.084599827E-01 6.969742691E+04 1.017415472E+02 1.221213919E-02
 -1.834801026E+00 -2.652246374E-01 6.969785748E+04 1.017373011E+02 1.230174337E-02
 -1.844932589E+00 -1.919930398E-01 6.969774625E+04 1.017380981E+02 1.389301853E-02
 -1.687692550E+00 -2.441501911E-01 6.969823465E+04 1.017332284E+02 1.387147865E-02
 -1.697016715E+00 -1.767725004E-01 6.969811642E+04 1.017340957E+02 1.571201180E-02
 -1.551755431E+00 -2.246755207E-01 6.969867069E+04 1.017285145E+02 1.555298377E-02
 -1.560333517E+00 -1.627071947E-01 6.969854524E+04 1.017294549E+02 1.767953631E-02
 -1.426170878E+00 -2.066833819E-01 6.969917473E+04 1.017230600E+02 1.735001976E-02
 -1.434059709E+00 -1.497124607E-01 6.969904188E+04 1.017240757E+02 1.980528047E-02
 -1.310178628E+00 -1.900649111E-01 6.969975742E+04 1.017167491E+02 1.926451643E-02
 -1.317430855E+00 -1.377096881E-01 6.969961704E+04 1.017178421E+02 2.209800367E-02
 -1.203072838E+00 -1.747190374E-01 6.970043118E+04 1.017094465E+02 2.129613984E-02
 -1.209737237E+00 -1.266258936E-01 6.970028319E+04 1.017106182E+02 2.456521550E-02
 -1.104198264E+00 -1.605519357E-01 6.970121050E+04 1.017009947E+02 2.344191722E-02
 -1.110320015E+00 -1.163933263E-01 6.970105487E+04 1.017022457E+02 2.721302994E-02
 -1.012946705E+00 -1.474765170E-01 6.970211226E+04 1.016912097E+02 2.569565729E-02
 -1.018567647E+00 -1.069490997E-01 6.970194907E+04 1.016925399E+02 3.004570814E-02
 -9.287536868E-01 -1.354119550E-01 6.970315617E+04 1.016798775E+02 2.804736316E-02
 -9.339125636E-01 -9.823484958E-02 6.970298558E+04 1.016812855E+02 3.306531441E-02
 -8.510953857E-01 -1.242832444E-01 6.970436514E+04 1.016667482E+02 3.048253562E-02
 -8.558280639E-01 -9.019641538E-02 6.970418743E+04 1.016682313E+02 3.627120038E-02
 -7.794857574E-01 -1.140207910E-01 6.970576587E+04 1.016515312E+02 3.298127360E-02
 -7.838254360E-01 -8.278354402E-02 6.970558148E+04 1.016530851E+02 3.965928348E-02
 -7.134738692E-01 -1.045600291E-01 6.970738943E+04 1.016338876E+02 3.551741335E-02
 -7.174512720E-01 -7.594961391E-02 6.970719896E+04 1.016355064E+02 4.322148333E-02
 -6.526414170E-01 -9.584106621E-02 6.970927195E+04 1.016134237E+02 3.805749145E-02
 -6.562849717E-01 -6.965137835E-02 6.970907620E+04 1.016150991E+02 4.694498319E-02
 -5.966004149E-01 -8.780835259E-02 6.971145541E+04 1.015896814E+02 4.055947778E-02
 -5.999364197E-01 -6.384872666E-02 6.971125537E+04 1.015914028E+02 5.081122976E-02
 -5.449910457E-01 -8.041037310E-02 6.971398849E+04 1.015621289E+02 4.297143868E-02
 -5.480438238E-01 -5.850446197E-02 6.971378545E+04 1.015638828E+02 5.479495044E-02
 -4.974796617E-01 -7.359936108E-02 6.971692767E+04 1.015301489E+02 4.522995709E-02
 -5.002717047E-01 -5.358409447E-02 6.971672317E+04 1.015319188E+02 5.886295959E-02
 -4.537569241E-01 -6.733103190E-02 6.972033830E+04 1.014930262E+02 4.725830855E-02
 -4.563090259E-01 -4.905564902E-02 6.972013423E+04 1.014947917E+02 6.297268448E-02
 -4.135360734E-01 -6.156433510E-02 6.972429601E+04 1.014499320E+02 4.896456087E-02
 -4.158674538E-01 -4.488948612E-02 6.972409462E+04 1.014516691E+02 6.707064510E-02
 -3.765513202E-01 -5.626122390E-02 6.972888815E+04 1.013999080E+02 5.023956445E-02
 -3.786797403E-01 -4.105813545E-02 6.972869208E+04 1.014015881E+02 7.109084165E-02
 -3.425563486E-01 -5.138644065E-02 6.973421551E+04 1.013418462E+02 5.095440842E-02
 -3.444982174E-01 -3.753614086E-02 6.973402782E+04 1.013434360E+02 7.495265495E-02
 -3.113229248E-01 -4.690731737E-02 6.974039420E+04 1.012744677E+02 5.095742830E-02
 -3.130933985E-01 -3.429991632E-02 6.974021846E+04 1.012759283E+02 7.855839444E-02
 -2.826396029E-01 -4.279359015E-02 6.974755785E+04 1.011962972E+02 5.007102187E-02
 -2.842526773E-01 -3.132761179E-02 6.974739817E+04 1.011975839E+02 8.179067598E-02
 -2.563105220E-01 -3.901722656E-02 6.975585999E+04 1.011056348E+02 4.808775322E-02
 -2.577791177E-01 -2.859898851E-02 6.975572107E+04 1.011066962E+02 8.450911846E-02
 -2.321542873E-01 -3.555226515E-02 6.976547683E+04 1.010005233E+02 4.476556659E-02
 -2.334903294E-01 -2.609530302E-02 6.976536405E+04 1.010013005E+02 8.654621395E-02
 -2.100029308E-01 -3.237466616E-02 6.977661041E+04 1.008787100E+02 3.982206719E-02
 -2.112174223E-01 -2.379919928E-02 6.977652992E+04 1.008791356E+02 8.770234931E-02
 -1.897009442E-01 -2.946217279E-02 6.978949219E+04 1.007376032E+02 3.292745816E-02
 -1.908040345E-01 -2.169460836E-02 6.978945103E+04 1.007375999E+02 8.773965881E-02
 -1.711043809E-01 -2.679418216E-02 6.980438712E+04 1.005742202E+02 2.369601084E-02
 -1.721054294E-01 -1.976665524E-02 6.980439335E+04 1.005736995E+02 8.637461246E-02
 -1.540800206E-01 -2.435162548E-02 6.982159846E+04 1.003851276E+02 1.167373419E-02
 -1.549876555E-01 -1.800157212E-02 6.982166137E+04 1.003839876E+02 8.326715637E-02
 -1.385045940E-01 -2.211685662E-02 6.984147332E+04 1.001663676E+02 -3.672381654E-03
 -1.393267667E-01 -1.638661796E-02 6.984160367E+04 1.001644895E+02 7.801179201E-02
 -1.242640612E-01 -2.007354867E-02 6.986440890E+04 9.991337561E+01 -2.298473755E-02
 -1.250080973E-01 -1.491000368E-02 6.986461941E+04 9.991062109E+01 7.010867857E-02
 -1.112529422E-01 -1.820659786E-02 6.989085973E+04 9.962088079E+01 -4.703035609E-02
 -1.119255883E-01 -1.356082276E-02 6.989116539E+04 9.961708631E+01 5.895278579E-02
 -9.937369453E-02 -1.650203436E-02 6.992134774E+04 9.928276354E+01 -7.672952872E-02
 -9.998116167E-02 -1.232898681E-02 6.992176650E+04 9.927772970E+01 4.380845336E-02
 -8.853613483E-02 -1.494693949E-02 6.995647470E+04 9.889188275E+01 -1.132243445E-01
 -8.908413922E-02 -1.120516582E-02 6.995702848E+04 9.888536591E+01 2.374704091E-02
 -7.865690216E-02 -1.352936896E-02 6.999693537E+04 9.843988094E+01 -1.579311463E-01
 -7.915070240E-02 -1.018073268E-02 6.999765067E+04 9.843158871E+01 -2.397365425E-03
 -6.965895919E-02 -1.223828153E-02 7.004353154E+04 9.791693630E+01 -2.126763047E-01
 -7.010339105E-02 -9.247711792E-03 7.004444248E+04 9.790650437E+01 -3.613184278E-02
 -6.147112900E-02 -1.106347305E-02 7.009719567E+04 9.731145636E+01 -2.797619398E-01
 -6.187063760E-02 -8.398731439E-03 7.009834828E+04 9.729836863E+01 -7.937824060E-02
 -5.402766507E-02 -9.995515074E-03 7.015902152E+04 9.660949804E+01 -3.621880998E-01
 -5.438633470E-02 -7.626979561E-03 7.016047481E+04 9.659310458E+01 -1.347023803E-01
 -4.726785200E-02 -9.025698045E-03 7.023030550E+04 9.579428497E+01 -4.636734935E-01
 -4.758943373E-02 -6.926162806E-03 7.023213003E+04 9.577371278E+01 -2.053335510E-01
 -4.113563480E-02 -8.145978580E-03 7.031258358E+04 9.484502039E+01 -5.879457827E-01
 -4.142357209E-02 -6.290468555E-03 7.031485971E+04 9.481946301E+01 -2.944064126E-01
 -3.558749342E-02 -7.300462370E-03 7.040783751E+04 9.373472340E+01 -7.246214048E-01
 -3.584359913E-02 -5.670143817E-03 7.041056862E+04 9.370418505E+01 -3.917440894E-01
 -3.060284913E-02 -6.322106177E-03 7.051864812E+04 9.242822493E+01 -8.591493042E-01
 -3.082387767E-02 -4.911860583E-03 7.052175327E+04 9.239349045E+01 -4.830246517E-01
 -2.609808235E-02 -5.437997142E-03 7.064775856E+04 9.088248484E+01 -1.003516772E+00
 -2.628741068E-02 -4.226637143E-03 7.065123557E+04 9.084380430E+01 -5.785586100E-01
 -2.203292984E-02 -4.640224522E-03 7.079877025E+04 8.904558815E+01 -1.171613659E+00
 -2.219365157E-02 -3.608340585E-03 7.080266811E+04 8.900206938E+01 -6.907677708E-01
 -1.837027135E-02 -3.921494235E-03 7.097613523E+04 8.683513757E+01 -1.372004028E+00
 -1.850521888E-02 -3.051315869E-03 7.098055647E+04 8.678609830E+01 -8.260426679E-01
 -1.507589500E-02 -3.275083108E-03 7.118673732E+04 8.415423305E+01 -1.605454992E+00
 -1.518765995E-02 -2.550350426E-03 7.119171712E+04 8.409815339E+01 -9.840530972E-01
 -1.211827956E-02 -2.694796386E-03 7.143738188E+04 8.081767888E+01 -1.901148586E+00
 -1.220923177E-02 -2.100641286E-03 7.144317884E+04 8.075336226E+01 -1.188082565E+00
 -9.468392680E-03 -2.174928290E-03 7.174315243E+04 7.663965668E+01 -2.241993012E+00
 -9.540697668E-03 -1.697764547E-03 7.174971375E+04 7.656403071E+01 -1.420876465E+00
 -7.099503632E-03 -1.710225400E-03 7.211100936E+04 7.108025098E+01 -2.741435223E+00
 -7.155138831E-03 -1.337647018E-03 7.211906625E+04 7.098890837E+01 -1.778230274E+00
 -4.987009784E-03 -1.295852642E-03 7.257768605E+04 6.380068441E+01 -3.270743865E+00
 -5.027779496E-03 -1.016539883E-03 7.258664388E+04 6.369502833E+01 -2.138951414E+00
 -3.108275682E-03 -9.273616937E-04 7.309530824E+04 5.307186544E+01 -4.163526852E+00
 -3.135824925E-03 -7.309942053E-04 7.310667330E+04 5.292058701E+01 -2.785569648E+00
 -1.442483903E-03 -6.006615293E-04 7.367204960E+04 4.046667666E+01 -4.558756742E+00
 -1.458311203E-03 -4.778380589E-04 7.368356493E+04 4.032390480E+01 -3.083193423E+00
 2.950318352E-05 -3.119902977E-04 7.399990464E+04 3.455979988E+01 -4.259133653E+00
 2.403397564E-05 -2.541545121E-04 7.400876590E+04 3.446523125E+01 -2.849183278E+00
 -4.904860300E+00 -3.743658139E-01 6.969583641E+04 1.017582822E+02 4.082957885E-04
 -4.531131445E+00 -3.335655711E-01 6.969587414E+04 1.017579105E+02 7.781497839E-04
 -4.184970419E+00 -2.957741877E-01 6.969594630E+04 1.017571816E+02 1.636732148E-03
 -3.864397513E+00 -2.607756050E-01 6.969601310E+04 1.017564478E+02 2.658794561E-03
 -3.567572402E+00 -2.283689755E-01 6.969608932E+04 1.017555890E+02 3.750171744E-03
 -3.290852258E+00 -2.088549990E-01 6.969618902E+04 1.017545069E+02 4.888828183E-03
 -3.034341025E+00 -1.927302375E-01 6.969631038E+04 1.017532019E+02 6.085570097E-03
 -2.796961421E+00 -1.778074524E-01 6.969645293E+04 1.017516662E+02 7.361300870E-03
 -2.577328686E+00 -1.639996561E-01 6.969662067E+04 1.017498574E+02 8.731113317E-03
 -2.374156133E+00 -1.512260213E-01 6.969681750E+04 1.017477341E+02 1.020967558E-02
 -2.186248314E+00 -1.394114517E-01 6.969704732E+04 1.017452523E+02 1.181205562E-02
 -2.012494665E+00 -1.284861826E-01 6.969731505E+04 1.017423582E+02 1.355339649E-02
 -1.851863574E+00 -1.183854085E-01 6.969762650E+04 1.017389887E+02 1.544900472E-02
 -1.703396865E+00 -1.090489370E-01 6.969798836E+04 1.017350708E+02 1.751434349E-02
 -1.566204668E+00 -1.004208660E-01 6.969840848E+04 1.017305191E+02 1.976493559E-02
 -1.439460631E+00 -9.244928358E-02 6.969889601E+04 1.017252342E+02 2.221642608E-02
 -1.322397467E+00 -8.508598860E-02 6.969946166E+04 1.017190995E+02 2.488441796E-02
 -1.214302818E+00 -7.828623031E-02 6.970011789E+04 1.017119794E+02 2.778429258E-02
 -1.114515389E+00 -7.200846631E-02 6.970087930E+04 1.017037151E+02 3.093137135E-02
 -1.022421360E+00 -6.621413714E-02 6.970176289E+04 1.016941217E+02 3.434046007E-02
 -9.374510474E-01 -6.086745648E-02 6.970278849E+04 1.016829833E+02 3.802563138E-02
 -8.590757886E-01 -5.593521592E-02 6.970397920E+04 1.016700483E+02 4.200012975E-02
 -7.868050514E-01 -5.138660327E-02 6.970536196E+04 1.016550232E+02 4.627580464E-02
 -7.201837392E-01 -4.719303346E-02 6.970696808E+04 1.016375669E+02 5.086286607E-02
 -6.587896854E-01 -4.332799121E-02 6.970883400E+04 1.016172818E+02 5.576937483E-02
 -6.022313214E-01 -3.976688459E-02 6.971100205E+04 1.015937062E+02 6.100046263E-02
 -5.501455077E-01 -3.648690876E-02 6.971352132E+04 1.015663037E+02 6.655776553E-02
 -5.021955155E-01 -3.346691920E-02 6.971644875E+04 1.015344520E+02 7.243863522E-02
 -4.580691498E-01 -3.068731370E-02 6.971985024E+04 1.014974297E+02 7.863503188E-02
 -4.174770033E-01 -2.812992256E-02 6.972380202E+04 1.014544017E+02 8.513242916E-02
 -3.801508324E-01 -2.577790646E-02 6.972839209E+04 1.014044021E+02 9.190867472E-02
 -3.458420468E-01 -2.361566135E-02 6.973372197E+04 1.013463150E+02 9.893237812E-02
 -3.143203054E-01 -2.162872999E-02 6.973990861E+04 1.012788520E+02 1.061609664E-01
 -2.853722097E-01 -1.980371963E-02 6.974708655E+04 1.012005278E+02 1.135386859E-01
 -2.588000904E-01 -1.812822545E-02 6.975541036E+04 1.011096310E+02 1.209939843E-01
 -2.344208779E-01 -1.659075926E-02 6.976505741E+04 1.010041914E+02 1.284361311E-01
 -2.120650530E-01 -1.518068326E-02 6.977623108E+04 1.008819414E+02 1.357511052E-01
 -1.915756717E-01 -1.388814840E-02 6.978916437E+04 1.007402722E+02 1.427965852E-01
 -1.728074579E-01 -1.270403708E-02 6.980412402E+04 1.005761811E+02 1.493957342E-01
 -1.556259615E-01 -1.161990991E-02 6.982141543E+04 1.003862115E+02 1.553285661E-01
 -1.399067747E-01 -1.062795625E-02 6.984138831E+04 1.001663756E+02 1.603235104E-01
 -1.255348047E-01 -9.720948305E-03 6.986444327E+04 9.991207387E+01 1.640344986E-01
 -1.124035975E-01 -8.892198471E-03 6.989103889E+04 9.961798972E+01 1.660314805E-01
 -1.004147099E-01 -8.135519834E-03 6.992170231E+04 9.927794179E+01 1.657764380E-01
 -8.947712583E-02 -7.445189509E-03 6.995704228E+04 9.888471330E+01 1.625731168E-01
 -7.950671465E-02 -6.815914686E-03 6.999776201E+04 9.842985421E+01 1.555285013E-01
 -7.042572771E-02 -6.242801162E-03 7.004467640E+04 9.790341252E+01 1.434720667E-01
 -6.216233093E-02 -5.721324209E-03 7.009873676E+04 9.729355514E+01 1.248896984E-01
 -5.465017080E-02 -5.247301587E-03 7.016106026E+04 9.658610557E+01 9.770701497E-02
 -4.782797136E-02 -4.816868542E-03 7.023296540E+04 9.576388207E+01 5.927019543E-02
 -4.163916016E-02 -4.426454653E-03 7.031600898E+04 9.480618904E+01 7.049938923E-03
 -3.603704321E-02 -4.032468462E-03 7.041204713E+04 9.368726623E+01 -4.922347016E-02
 -3.099101412E-02 -3.495287275E-03 7.052348469E+04 9.237364644E+01 -9.576692982E-02
 -2.643077222E-02 -3.009879624E-03 7.065319305E+04 9.082154175E+01 -1.410728638E-01
 -2.231555839E-02 -2.571898688E-03 7.080488449E+04 8.897673119E+01 -1.958493945E-01
 -1.860779526E-02 -2.177336083E-03 7.098310320E+04 8.675730248E+01 -2.641625715E-01
 -1.527284962E-02 -1.822496874E-03 7.119460311E+04 8.406487144E+01 -3.447923119E-01
 -1.227881208E-02 -1.503976353E-03 7.144659821E+04 8.071496098E+01 -4.542700375E-01
 -9.596292770E-03 -1.218638461E-03 7.175357702E+04 7.651838992E+01 -5.769661811E-01
 -7.198231784E-03 -9.635957431E-04 7.212397392E+04 7.093300523E+01 -7.860524722E-01
 -5.059723522E-03 -7.361907061E-04 7.259193118E+04 6.363358368E+01 -9.792212299E-01
 -3.157853787E-03 -5.339784643E-04 7.311371007E+04 5.282630113E+01 -1.358684513E+00
 -1.471548794E-03 -3.547104875E-04 7.369111655E+04 4.024465413E+01 -1.552810735E+00
 1.856476775E-05 -1.963187265E-04 7.401446880E+04 3.443366082E+01 -1.406664003E+00
 -4.916318661E+00 -1.667794339E-01 6.969578645E+04 1.017584703E+02 6.102912686E-04
 -4.541379105E+00 -1.441616196E-01 6.969582063E+04 1.017581290E+02 1.006798409E-03
 -4.194096700E+00 -1.232114591E-01 6.969588644E+04 1.017574600E+02 1.921585181E-03
 -3.872485319E+00 -1.038092060E-01 6.969594822E+04 1.017567822E+02 3.005042120E-03
 -3.574698676E+00 -8.584354565E-02 6.969601954E+04 1.017559790E+02 4.165173913E-03
 -3.297380352E+00 -7.778144411E-02 6.969611346E+04 1.017549572E+02 5.386098046E-03
 -3.040364893E+00 -7.185676246E-02 6.969622852E+04 1.017537157E+02 6.679988739E-03
 -2.802518679E+00 -6.637329493E-02 6.969636443E+04 1.017522463E+02 8.065920845E-03
 -2.582454227E+00 -6.129911836E-02 6.969652514E+04 1.017505077E+02 9.560500534E-03
 -2.378882318E+00 -5.660457002E-02 6.969671450E+04 1.017484591E+02 1.118108248E-02
 -2.190605157E+00 -5.226209013E-02 6.969693639E+04 1.017460572E+02 1.294556234E-02
 -2.016509992E+00 -4.824607515E-02 6.969719568E+04 1.017432486E+02 1.487231479E-02
 -1.855563184E+00 -4.453274137E-02 6.969749816E+04 1.017399708E+02 1.698045754E-02
 -1.706804674E+00 -4.109999775E-02 6.969785049E+04 1.017361511E+02 1.928986384E-02
 -1.569342839E+00 -3.792732772E-02 6.969826047E+04 1.017317047E+02 2.182118646E-02
 -1.442349704E+00 -3.499567903E-02 6.969873722E+04 1.017265323E+02 2.459595656E-02
 -1.325056474E+00 -3.228736127E-02 6.969929143E+04 1.017205179E+02 2.763661507E-02
 -1.216749388E+00 -2.978595054E-02 6.969993554E+04 1.017135259E+02 3.096649750E-02
 -1.116765853E+00 -2.747620061E-02 6.970068411E+04 1.017053980E+02 3.461006932E-02
 -1.024490841E+00 -2.534396035E-02 6.970155415E+04 1.016959493E+02 3.859259171E-02
 -9.393535479E-01 -2.337609681E-02 6.970256547E+04 1.016849640E+02 4.294026992E-02
 -8.608242726E-01 -2.156042367E-02 6.970374117E+04 1.016721904E+02 4.768037277E-02
 -7.884115180E-01 -1.988563463E-02 6.970510821E+04 1.016573352E+02 5.284061628E-02
 -7.216592931E-01 -1.834124141E-02 6.970669791E+04 1.016400567E+02 5.844934519E-02
 -6.601446009E-01 -1.691751606E-02 6.970854673E+04 1.016199574E+02 6.453539271E-02
 -6.034751034E-01 -1.560543726E-02 6.971069705E+04 1.015965747E+02 7.112753199E-02
 -5.512869468E-01 -1.439664031E-02 6.971319803E+04 1.015693718E+02 7.825436712E-02
 -5.032427406E-01 -1.328337059E-02 6.971610668E+04 1.015377253E+02 8.594390339E-02
 -4.590296761E-01 -1.225844020E-02 6.971948900E+04 1.015009129E+02 9.422260384E-02
 -4.183577770E-01 -1.131518762E-02 6.972342133E+04 1.014580981E+02 1.031147925E-01
 -3.809582723E-01 -1.044744010E-02 6.972799182E+04 1.014083135E+02 1.126420811E-01
 -3.465820832E-01 -9.649478639E-03 6.973330213E+04 1.013504413E+02 1.228221898E-01
 -3.149984156E-01 -8.916005392E-03 6.973946941E+04 1.012831910E+02 1.336675117E-01
 -2.859934518E-01 -8.242113257E-03 6.974662841E+04 1.012050747E+02 1.451838038E-01
 -2.593691336E-01 -7.623257580E-03 6.975493396E+04 1.011143782E+02 1.573682800E-01
 -2.349420316E-01 -7.055229793E-03 6.976456374E+04 1.010091276E+02 1.702069513E-01
 -2.125422935E-01 -6.534132875E-03 6.977572149E+04 1.008870512E+02 1.836713108E-01
 -1.920126666E-01 -6.056358514E-03 6.978864062E+04 1.007455354E+02 1.977143966E-01
 -1.732075893E-01 -5.618565870E-03 6.980358837E+04 1.005815719E+02 2.122659016E-01
 -1.559923472E-01 -5.217661841E-03 6.982087072E+04 1.003916968E+02 2.272256226E-01
 -1.402422879E-01 -4.850782745E-03 6.984083815E+04 1.001719150E+02 2.424563151E-01
 -1.258420923E-01 -4.515277338E-03 6.986389213E+04 9.991761363E+01 2.577650141E-01
 -1.126850972E-01 -4.208691078E-03 6.989049256E+04 9.962346149E+01 2.728965494E-01
 -1.006726657E-01 -3.928751575E-03 6.992116816E+04 9.928326306E+01 2.875109916E-01
 -8.971360301E-02 -3.673355145E-03 6.995652960E+04 9.888978010E+01 3.011441645E-01
 -7.972361299E-02 -3.440554395E-03 6.999728275E+04 9.843453084E+01 3.131788910E-01
 -7.062479421E-02 -3.228546782E-03 7.004424639E+04 9.790752230E+01 3.227740035E-01
 -6.234517140E-02 -3.035664056E-03 7.009837673E+04 9.729686126E+01 3.288019630E-01
 -5.481826064E-02 -2.860362531E-03 7.016079834E+04 9.658830503E+01 3.296772511E-01
 -4.798266557E-02 -2.701214113E-03 7.023283692E+04 9.576453757E+01 3.233486311E-01
 -4.178170258E-02 -2.556898012E-03 7.031605709E+04 9.480490419E+01 3.079128520E-01
 -3.616722302E-02 -2.390000946E-03 7.041227695E+04 9.368392676E+01 2.927854290E-01
 -3.110374019E-02 -2.074591979E-03 7.052383033E+04 9.236886729E+01 2.910504699E-01
 -2.652772489E-02 -1.789605945E-03 7.065362290E+04 9.081583152E+01 2.958950966E-01
 -2.239827702E-02 -1.532487473E-03 7.080541210E+04 8.896972160E+01 2.984672132E-01
 -1.867768920E-02 -1.300879787E-03 7.098376622E+04 8.674885012E+01 2.972608103E-01
 -1.533120844E-02 -1.092610146E-03 7.119538903E+04 8.405445132E+01 2.940157908E-01
 -1.232681499E-02 -9.056763117E-04 7.144762292E+04 8.070235189E+01 2.801607356E-01
 -9.635017295E-03 -7.382339504E-04 7.175473831E+04 7.650258201E+01 2.668153920E-01
 -7.228661879E-03 -5.885849162E-04 7.212568226E+04 7.091184046E+01 2.113628458E-01
 -5.082756993E-03 -4.551663365E-04 7.259355800E+04 6.361458296E+01 1.770185015E-01
 -3.174309182E-03 -3.365404150E-04 7.311617592E+04 5.278888449E+01 8.551307599E-02
 -1.482171773E-03 -2.313848099E-04 7.369473071E+04 4.026374333E+01 3.285629630E-02
 1.309555987E-05 -1.384829409E-04 7.401769709E+04 3.453287219E+01 9.220971779E-02
 -4.919121367E+00 4.110405248E-02 6.969573391E+04 1.017586745E+02 8.047895450E-04
 -4.543634641E+00 4.551668107E-02 6.969576454E+04 1.017583663E+02 1.226853256E-03
 -4.195845441E+00 4.960454488E-02 6.969582381E+04 1.017577625E+02 2.196757522E-03
 -3.873764742E+00 5.339095389E-02 6.969588028E+04 1.017571451E+02 3.340971755E-03
 -3.575543558E+00 5.689757820E-02 6.969594653E+04 1.017564004E+02 4.568515814E-03
 -3.298114812E+00 5.349031714E-02 6.969603438E+04 1.017554429E+02 5.869328575E-03
 -3.041046690E+00 4.919944779E-02 6.969614263E+04 1.017542710E+02 7.257224739E-03
 -2.803151751E+00 4.522928156E-02 6.969627139E+04 1.017528742E+02 8.750499015E-03
 -2.583042224E+00 4.155659345E-02 6.969642448E+04 1.017512126E+02 1.036708156E-02
 -2.379428628E+00 3.815980382E-02 6.969660568E+04 1.017492468E+02 1.212698270E-02
 -2.191112917E+00 3.501886383E-02 6.969681884E+04 1.017469337E+02 1.405087300E-02
 -2.016982114E+00 3.211514865E-02 6.969706878E+04 1.017442209E+02 1.616029712E-02
 -1.856002365E+00 2.943135805E-02 6.969736121E+04 1.017410466E+02 1.847816801E-02
 -1.707213414E+00 2.695142375E-02 6.969770276E+04 1.017373388E+02 2.102877646E-02
 -1.569723456E+00 2.466042314E-02 6.969810116E+04 1.017330133E+02 2.383789472E-02
 -1.442704344E+00 2.254449899E-02 6.969856547E+04 1.017279717E+02 2.693297595E-02
 -1.325387126E+00 2.059078456E-02 6.969910631E+04 1.017220985E+02 3.034331612E-02
 -1.217057895E+00 1.878733401E-02 6.969973607E+04 1.017152588E+02 3.410023080E-02
 -1.117053919E+00 1.712305748E-02 6.970046927E+04 1.017072951E+02 3.823725089E-02
 -1.024760047E+00 1.558766076E-02 6.970132281E+04 1.016980230E+02 4.279013589E-02
 -9.396053559E-01 1.417158908E-02 6.970231647E+04 1.016872274E+02 4.779733689E-02
 -8.610600363E-01 1.286597479E-02 6.970347331E+04 1.016746572E+02 5.330011816E-02
 -7.886324902E-01 1.166258873E-02 6.970482018E+04 1.016600198E+02 5.934199779E-02
 -7.218666329E-01 1.055379496E-02 6.970638840E+04 1.016429741E+02 6.596963583E-02
 -6.603393809E-01 9.532508613E-03 6.970821435E+04 1.016231229E+02 7.323293125E-02
 -6.036583153E-01 8.592156790E-03 6.971034039E+04 1.016000042E+02 8.118431538E-02
 -5.514595080E-01 7.726642150E-03 6.971281563E+04 1.015730815E+02 8.987922584E-02
 -5.034054992E-01 6.930309090E-03 6.971569704E+04 1.015417318E+02 9.937614713E-02
 -4.591834160E-01 6.197912331E-03 6.971905063E+04 1.015052327E+02 1.097361698E-01
 -4.185032228E-01 5.524587745E-03 6.972295273E+04 1.014627476E+02 1.210225478E-01
 -3.810960935E-01 4.905825274E-03 6.972749149E+04 1.014133090E+02 1.333008201E-01
 -3.467128981E-01 4.337443803E-03 6.973276862E+04 1.013557987E+02 1.466381241E-01
 -3.151227952E-01 3.815567840E-03 6.973890130E+04 1.012889255E+02 1.611019233E-01
 -2.861119234E-01 3.336605902E-03 6.974602436E+04 1.012112008E+02 1.767595433E-01
 -2.594821839E-01 2.897230459E-03 6.975429268E+04 1.011209092E+02 1.936769348E-01
 -2.350501097E-01 2.494359336E-03 6.976388409E+04 1.010160752E+02 2.119167666E-01
 -2.126458136E-01 2.125138463E-03 6.977500248E+04 1.008944252E+02 2.315360383E-01
 -1.921120106E-01 1.786925861E-03 6.978788147E+04 1.007533428E+02 2.525832057E-01
 -1.733031094E-01 1.477276771E-03 6.980278850E+04 1.005898173E+02 2.750948933E-01
 -1.560843679E-01 1.193929827E-03 6.982002986E+04 1.004003805E+02 2.990906412E-01
 -1.403311081E-01 9.347941908E-04 6.983995637E+04 1.001810340E+02 3.245691480E-01
 -1.259279873E-01 6.979375544E-04 6.986296996E+04 9.992715686E+01 3.514899423E-01
 -1.127683204E-01 4.815749496E-04 6.988953125E+04 9.963340877E+01 3.797709179E-01
 -1.007534503E-01 2.840582849E-04 6.992016992E+04 9.929358795E+01 4.092724290E-01
 -8.979216341E-02 1.038665556E-04 6.995549755E+04 9.890044458E+01 4.397635781E-01
 -7.980014647E-02 -6.040332822E-05 6.999622141E+04 9.844547850E+01 4.709027976E-01
 -7.069948202E-02 -2.100451405E-04 7.004316252E+04 9.791867360E+01 5.021792967E-01
 -6.241818007E-02 -3.462514040E-04 7.009727976E+04 9.730810080E+01 5.328662426E-01
 -5.488974310E-02 -4.701209446E-04 7.015970208E+04 9.659947981E+01 5.618738731E-01
 -4.805276223E-02 -5.826659640E-04 7.023175922E+04 9.577540780E+01 5.877598723E-01
 -4.185054226E-02 -6.848186594E-04 7.031502109E+04 9.481526366E+01 6.092239431E-01
 -3.623356999E-02 -7.453568835E-04 7.041127933E+04 9.369377606E+01 6.352899146E-01
 -3.116156689E-02 -6.520242582E-04 7.052281541E+04 9.237874876E+01 6.783864095E-01
 -2.657785163E-02 -5.677348551E-04 7.065255240E+04 9.082622843E+01 7.334546627E-01
 -2.244145527E-02 -4.917271625E-04 7.080428002E+04 8.898057708E+01 7.933165302E-01
 -1.871460700E-02 -4.232982285E-04 7.098257153E+04 8.676025784E+01 8.591124579E-01
 -1.536249530E-02 -3.617995593E-04 7.119410315E+04 8.406647500E+01 9.325154227E-01
 -1.235304657E-02 -3.066332788E-04 7.144626419E+04 8.071514140E+01 1.014040766E+00
 -9.656719641E-03 -2.572485274E-04 7.175323044E+04 7.651638837E+01 1.106738090E+00
 -7.246315328E-03 -2.131380835E-04 7.212414450E+04 7.092571625E+01 1.206344133E+00
 -5.096799838E-03 -1.738351829E-04 7.259167243E+04 6.363240431E+01 1.319172286E+00
 -3.185141029E-03 -1.389104939E-04 7.311382443E+04 5.284197412E+01 1.460677794E+00
 -1.490156644E-03 -1.079691282E-04 7.369402103E+04 4.062594795E+01 1.608212405E+00
 7.626351982E-06 -8.064715534E-05 7.401863839E+04 3.517331988E+01 1.677561079E+00
 -4.913313371E+00 2.489252871E-01 6.969567866E+04 1.017588943E+02 9.851375516E-04
 -4.537939555E+00 2.351375240E-01 6.969570578E+04 1.017586221E+02 1.431604948E-03
 -4.190254951E+00 2.223675320E-01 6.969575832E+04 1.017580888E+02 2.454954537E-03
 -3.868271129E+00 2.105422116E-01 6.969580918E+04 1.017575362E+02 3.659542615E-03
 -3.570139657E+00 1.995936120E-01 6.969587018E+04 1.017568532E+02 4.955122979E-03
 -3.293085764E+00 1.847197513E-01 6.969595165E+04 1.017559640E+02 6.336191556E-03
 -3.036414195E+00 1.702166072E-01 6.969605263E+04 1.017548673E+02 7.817193547E-03
 -2.798886243E+00 1.567958402E-01 6.969617372E+04 1.017535492E+02 9.416337160E-03
 -2.579116275E+00 1.443790946E-01 6.969631862E+04 1.017519716E+02 1.115328386E-02
 -2.375816796E+00 1.328935646E-01 6.969649096E+04 1.017500963E+02 1.305038391E-02
 -2.187791611E+00 1.222716080E-01 6.969669458E+04 1.017478812E+02 1.513122153E-02
 -2.013929456E+00 1.124503857E-01 6.969693424E+04 1.017452746E+02 1.742064297E-02
 -1.853198072E+00 1.033715265E-01 6.969721556E+04 1.017422157E+02 1.994537294E-02
 -1.704638683E+00 9.498081516E-02 6.969754507E+04 1.017386336E+02 2.273413331E-02
 -1.567360860E+00 8.722790114E-02 6.969793044E+04 1.017344450E+02 2.581781371E-02
 -1.440537732E+00 8.006602823E-02 6.969838064E+04 1.017295524E+02 2.922978691E-02
 -1.323401533E+00 7.345178238E-02 6.969890619E+04 1.017238415E+02 3.300621619E-02
 -1.215239457E+00 6.734485705E-02 6.969951939E+04 1.017171785E+02 3.718635240E-02
 -1.115389794E+00 6.170783477E-02 6.970023463E+04 1.017094069E+02 4.181284872E-02
 -1.023238341E+00 5.650598383E-02 6.970106874E+04 1.017003435E+02 4.693207379E-02
 -9.382150569E-01 5.170706900E-02 6.970204136E+04 1.016897746E+02 5.259455797E-02
 -8.597909477E-01 4.728117544E-02 6.970317544E+04 1.016774503E+02 5.885532549E-02
 -7.874751743E-01 4.320054482E-02 6.970449772E+04 1.016630793E+02 6.577388414E-02
 -7.208123552E-01 3.943942275E-02 6.970603936E+04 1.016463216E+02 7.341527043E-02
 -6.593800594E-01 3.597391699E-02 6.970783667E+04 1.016267816E+02 8.185034629E-02
 -6.027864736E-01 3.278186542E-02 6.970993183E+04 1.016039987E+02 9.115501239E-02
 -5.506682308E-01 2.984271327E-02 6.971237383E+04 1.015774377E+02 1.014116712E-01
 -5.026883917E-01 2.713739900E-02 6.971521954E+04 1.015464769E+02 1.127096793E-01
 -4.585345660E-01 2.464824812E-02 6.971853482E+04 1.015103951E+02 1.251444691E-01
 -4.179171655E-01 2.235887451E-02 6.972239590E+04 1.014683572E+02 1.388181661E-01
 -3.805677788E-01 2.025408868E-02 6.972689079E+04 1.014193968E+02 1.538399463E-01
 -3.462376602E-01 1.831981254E-02 6.973212109E+04 1.013623966E+02 1.703258629E-01
 -3.146963245E-01 1.654300011E-02 6.973820391E+04 1.012960662E+02 1.883982023E-01
 -2.857302398E-01 1.491156399E-02 6.974527396E+04 1.012189177E+02 2.081857474E-01