TITLE     = "fluent22.1.0  build-id: 10213"
VARIABLES = "X"
"Y"
"Pressure"
"X Velocity"
"Y Velocity"
DATASETAUXDATA Common.DensityVar="23"
DATASETAUXDATA Common.PressureVar="3"
DATASETAUXDATA Common.TemperatureVar="12"
DATASETAUXDATA Common.TurbulentDynamicViscosityVar="17"
DATASETAUXDATA Common.UVar="5"
DATASETAUXDATA Common.VectorVarsAreVelocity="TRUE"
DATASETAUXDATA Common.ViscosityVar="25"
DATASETAUXDATA Common.VVar="7"
ZONE T="fluid"
 STRANDID=1, SOLUTIONTIME=0.355
 Nodes=10240, Elements=10080, ZONETYPE=FEQuadrilateral
 DATAPACKING=POINT
 DT=(DOUBLE DOUBLE DOUBLE DOUBLE DOUBLE )
 -4.856290020E+00 -7.872354469E-01 6.969620245E+04 1.017568926E+02 9.413244137E-04
 -4.486949493E+00 -7.102608342E-01 6.969625336E+04 1.017563177E+02 1.844674384E-03
 -4.884823481E+00 -5.813004056E-01 6.969608793E+04 1.017573151E+02 1.217917835E-03
 -4.512963280E+00 -5.223815905E-01 6.969613295E+04 1.017568091E+02 2.150779734E-03
 -4.144853048E+00 -6.389628300E-01 6.969634747E+04 1.017552095E+02 3.946346006E-03
 -4.168533039E+00 -4.678075373E-01 6.969621694E+04 1.017558320E+02 4.310606969E-03
 -3.828044227E+00 -5.729338271E-01 6.969643093E+04 1.017541236E+02 6.461138501E-03
 -3.849562950E+00 -4.172662715E-01 6.969629244E+04 1.017548697E+02 6.885332816E-03
 -3.534704320E+00 -5.117949000E-01 6.969652545E+04 1.017529123E+02 9.165134148E-03
 -3.554221893E+00 -3.704677779E-01 6.969637874E+04 1.017537833E+02 9.659253670E-03
 -3.260626162E+00 -4.695174368E-01 6.969665007E+04 1.017514496E+02 1.199998389E-02
 -3.278583488E+00 -3.395476296E-01 6.969649375E+04 1.017524509E+02 1.258143694E-02
 -3.006461912E+00 -4.331196870E-01 6.969680158E+04 1.017497305E+02 1.497593545E-02
 -3.023024194E+00 -3.132638477E-01 6.969663476E+04 1.017508669E+02 1.566201439E-02
 -2.771254213E+00 -3.994354164E-01 6.969697620E+04 1.017477700E+02 1.812617147E-02
 -2.786525508E+00 -2.889392082E-01 6.969679827E+04 1.017490454E+02 1.893139269E-02
 -2.553630979E+00 -3.682682442E-01 6.969717815E+04 1.017455213E+02 2.147265715E-02
 -2.567707811E+00 -2.664319291E-01 6.969698836E+04 1.017469412E+02 2.241243106E-02
 -2.352317298E+00 -3.394356966E-01 6.969741181E+04 1.017429370E+02 2.503709960E-02
 -2.365289194E+00 -2.456102690E-01 6.969720943E+04 1.017445076E+02 2.612918050E-02
 -2.166128667E+00 -3.127682386E-01 6.969768118E+04 1.017399709E+02 2.884240524E-02
 -2.178078649E+00 -2.263518279E-01 6.969746541E+04 1.017416992E+02 3.010786595E-02
 -1.993964681E+00 -2.881083713E-01 6.969799133E+04 1.017365662E+02 3.291210161E-02
 -2.004969732E+00 -2.085428949E-01 6.969776132E+04 1.017384600E+02 3.437527429E-02
 -1.834803172E+00 -2.653097922E-01 6.969834832E+04 1.017326565E+02 3.727051453E-02
 -1.844934663E+00 -1.920778428E-01 6.969810314E+04 1.017347246E+02 3.895921711E-02
 -1.687694734E+00 -2.442366127E-01 6.969875907E+04 1.017281659E+02 4.194239612E-02
 -1.697018825E+00 -1.768585628E-01 6.969849777E+04 1.017304177E+02 4.388888766E-02
 -1.551757639E+00 -2.247626304E-01 6.969923158E+04 1.017230065E+02 4.695281796E-02
 -1.560335648E+00 -1.627939391E-01 6.969895317E+04 1.017254518E+02 4.919446714E-02
 -1.426173098E+00 -2.067706507E-01 6.969977521E+04 1.017170760E+02 5.232698888E-02
 -1.434061849E+00 -1.497993594E-01 6.969947867E+04 1.017197252E+02 5.490702392E-02
 -1.310180847E+00 -1.901518564E-01 6.970040082E+04 1.017102556E+02 5.809000064E-02
 -1.317432992E+00 -1.377962595E-01 6.970008513E+04 1.017131194E+02 6.105846274E-02
 -1.203075046E+00 -1.748052194E-01 6.970112107E+04 1.017024074E+02 6.426654985E-02
 -1.209739361E+00 -1.267116993E-01 6.970078518E+04 1.017054967E+02 6.768135772E-02
 -1.104200452E+00 -1.606369547E-01 6.970195068E+04 1.016933706E+02 7.088059581E-02
 -1.110322117E+00 -1.164779680E-01 6.970159355E+04 1.016966964E+02 7.480874445E-02
 -1.012948862E+00 -1.475600113E-01 6.970290679E+04 1.016829586E+02 7.795492219E-02
 -1.018569718E+00 -1.070322168E-01 6.970252741E+04 1.016865315E+02 8.247386243E-02
 -9.287558063E-01 -1.354935980E-01 6.970400932E+04 1.016709538E+02 8.551064355E-02
 -9.339145956E-01 -9.831611698E-02 6.970360672E+04 1.016747843E+02 9.070984507E-02
 -8.510974597E-01 -1.243627436E-01 6.970528148E+04 1.016571034E+02 9.356658312E-02
 -8.558300497E-01 -9.027554182E-02 6.970485472E+04 1.016612013E+02 9.954932406E-02
 -7.794877791E-01 -1.140978856E-01 6.970675021E+04 1.016411133E+02 1.021385721E-01
 -7.838273690E-01 -8.286027031E-02 6.970629847E+04 1.016454876E+02 1.090239500E-01
 -7.134758324E-01 -1.046344892E-01 6.970844688E+04 1.016226415E+02 1.112386390E-01
 -7.174531464E-01 -7.602371170E-02 6.970796941E+04 1.016273001E+02 1.191638306E-01
 -6.526433162E-01 -9.591269178E-02 6.971040789E+04 1.016012906E+02 1.208742236E-01
 -6.562867824E-01 -6.972264901E-02 6.970990406E+04 1.016062400E+02 1.299969867E-01
 -5.966022451E-01 -8.787697228E-02 6.971267548E+04 1.015765991E+02 1.310468042E-01
 -5.999381620E-01 -6.391700037E-02 6.971214484E+04 1.015818441E+02 1.415484020E-01
 -5.449928028E-01 -8.047584366E-02 6.971529867E+04 1.015480313E+02 1.417509837E-01
 -5.480454938E-01 -5.856959697E-02 6.971474093E+04 1.015535746E+02 1.538393936E-01
 -4.974813417E-01 -7.366156670E-02 6.971833420E+04 1.015149664E+02 1.529730171E-01
 -5.002732990E-01 -5.364597639E-02 6.971774932E+04 1.015208083E+02 1.668862692E-01
 -4.537585239E-01 -6.738988361E-02 6.972184776E+04 1.014766850E+02 1.646890735E-01
 -4.563105416E-01 -4.911419029E-02 6.972123592E+04 1.014828228E+02 1.806994042E-01
 -4.135375905E-01 -6.161977030E-02 6.972591529E+04 1.014323544E+02 1.768636843E-01
 -4.158688889E-01 -4.494462542E-02 6.972527700E+04 1.014387822E+02 1.952817559E-01
 -3.765527525E-01 -5.631320574E-02 6.973062449E+04 1.013810117E+02 1.894478787E-01
 -3.786810930E-01 -4.110983709E-02 6.972996055E+04 1.013877200E+02 2.106273156E-01
 -3.425576948E-01 -5.143495743E-02 6.973607648E+04 1.013215446E+02 2.023769004E-01
 -3.444994867E-01 -3.758439417E-02 6.973538808E+04 1.013285193E+02 2.267196130E-01
 -3.113241840E-01 -4.695238183E-02 6.974238780E+04 1.012526688E+02 2.155675197E-01
 -3.130945839E-01 -3.434473487E-02 6.974167652E+04 1.012598915E+02 2.435295707E-01
 -2.826407748E-01 -4.283523856E-02 6.974969248E+04 1.011729036E+02 2.289153325E-01
 -2.842537789E-01 -3.136903247E-02 6.974896038E+04 1.011803504E+02 2.610131390E-01
 -2.563116070E-01 -3.905551769E-02 6.975814454E+04 1.010805429E+02 2.422912512E-01
 -2.577801361E-01 -2.863707050E-02 6.975739419E+04 1.010881841E+02 2.791082720E-01
 -2.321552864E-01 -3.558727899E-02 6.976792077E+04 1.009736222E+02 2.555376157E-01
 -2.334912658E-01 -2.613012649E-02 6.976715530E+04 1.009814213E+02 2.977319653E-01
 -2.100038455E-01 -3.240650244E-02 6.977922387E+04 1.008498806E+02 2.684630853E-01
 -2.112182784E-01 -2.383086387E-02 6.977844707E+04 1.008577934E+02 3.167757465E-01
 -1.897017765E-01 -2.949094926E-02 6.979228609E+04 1.007067163E+02 2.808366066E-01
 -1.908048127E-01 -2.172323152E-02 6.979150250E+04 1.007146901E+02 3.361007650E-01
 -1.711051334E-01 -2.682003264E-02 6.980737337E+04 1.005411347E+02 2.923801854E-01
 -1.721061322E-01 -1.979237022E-02 6.980658839E+04 1.005491066E+02 3.555316336E-01
 -1.540806964E-01 -2.437469772E-02 6.982479019E+04 1.003496881E+02 3.027579907E-01
 -1.549882860E-01 -1.802452591E-02 6.982401023E+04 1.003575835E+02 3.748469081E-01
 -1.385051966E-01 -2.213730995E-02 6.984488514E+04 1.001284009E+02 3.115677500E-01
 -1.393273285E-01 -1.640696891E-02 6.984411784E+04 1.001361302E+02 3.937725268E-01
 -1.242645945E-01 -2.009155154E-02 6.986805731E+04 9.987268676E+01 3.183128654E-01
 -1.250085942E-01 -1.492791912E-02 6.986731195E+04 9.988014313E+01 4.119552791E-01
 -1.112534105E-01 -1.822232529E-02 6.989476360E+04 9.957724721E+01 3.223905353E-01
 -1.119260244E-01 -1.357647647E-02 6.989405136E+04 9.958430194E+01 4.289552757E-01
 -9.937410231E-02 -1.651566536E-02 6.992552899E+04 9.923592823E+01 3.230670813E-01
 -9.998154137E-02 -1.234255647E-02 6.992486348E+04 9.924242062E+01 4.442248168E-01
 -8.853648677E-02 -1.495865454E-02 6.996095911E+04 9.884154596E+01 3.194155851E-01
 -8.908446691E-02 -1.121683051E-02 6.996035732E+04 9.884727609E+01 4.570518424E-01
 -7.865720307E-02 -1.353934752E-02 7.000175365E+04 9.838568645E+01 3.102686354E-01
 -7.915098262E-02 -1.019067050E-02 7.000123633E+04 9.839041252E+01 4.665212288E-01
 -6.965921389E-02 -1.224669983E-02 7.004872106E+04 9.785845991E+01 2.940931910E-01
 -7.010362833E-02 -9.256097614E-03 7.004831541E+04 9.786187731E+01 4.714224929E-01
 -6.147134227E-02 -1.107050194E-02 7.010280176E+04 9.724817427E+01 2.689288262E-01
 -6.187083641E-02 -8.405734840E-03 7.010254565E+04 9.724983842E+01 4.701820631E-01
 -5.402784158E-02 -1.000131830E-02 7.016510061E+04 9.654079106E+01 2.321983984E-01
 -5.438649938E-02 -7.632763079E-03 7.016504349E+04 9.654013306E+01 4.606604190E-01
 -4.726799625E-02 -9.030430657E-03 7.023692363E+04 9.571934542E+01 1.806711473E-01
 -4.758956845E-02 -6.930880416E-03 7.023712495E+04 9.571559232E+01 4.401213485E-01
 -4.113575106E-02 -8.149785752E-03 7.031981608E+04 9.476315266E+01 1.112848935E-01
 -4.142368079E-02 -6.294264470E-03 7.032034257E+04 9.475560502E+01 4.060887213E-01
 -3.558758550E-02 -7.303478177E-03 7.041570322E+04 9.364555493E+01 3.524119315E-02
 -3.584368536E-02 -5.673151511E-03 7.041654690E+04 9.363430315E+01 3.695359474E-01
 -3.060292010E-02 -6.324452634E-03 7.052707877E+04 9.233226126E+01 -3.180484964E-02
 -3.082394428E-02 -4.914202095E-03 7.052815176E+04 9.231813505E+01 3.458533367E-01
 -2.609813589E-02 -5.439786230E-03 7.065673994E+04 9.077988114E+01 -1.005019440E-01
 -2.628746105E-02 -4.228423506E-03 7.065802488E+04 9.076324216E+01 3.260879243E-01
 -2.203296922E-02 -4.641556339E-03 7.080837288E+04 8.893537729E+01 -1.830092336E-01
 -2.219368872E-02 -3.609671157E-03 7.080989400E+04 8.891552776E+01 2.995685684E-01
 -1.837029945E-02 -3.922457247E-03 7.098642953E+04 8.671618367E+01 -2.856227029E-01
 -1.850524546E-02 -3.052278548E-03 7.098826176E+04 8.669267592E+01 2.622321071E-01
 -1.507591430E-02 -3.275754591E-03 7.119781619E+04 8.402551928E+01 -4.052619137E-01
 -1.518767828E-02 -2.551022075E-03 7.119995315E+04 8.399713009E+01 2.181271915E-01
 -1.211829219E-02 -2.695243034E-03 7.144932342E+04 8.067688379E+01 -5.670775770E-01
 -1.220924381E-02 -2.101088314E-03 7.145197761E+04 8.064281909E+01 1.482884724E-01
 -9.468400420E-03 -2.175206938E-03 7.175611992E+04 7.648712016E+01 -7.432669888E-01
 -9.540705075E-03 -1.698043603E-03 7.175915159E+04 7.644490624E+01 8.013188069E-02
 -7.099507947E-03 -1.710383807E-03 7.212485538E+04 7.090941541E+01 -1.040557891E+00
 -7.155142979E-03 -1.337805759E-03 7.212889722E+04 7.085470048E+01 -7.568017196E-02
 -4.987011854E-03 -1.295930316E-03 7.259293893E+04 6.363651596E+01 -1.280320717E+00
 -5.027781496E-03 -1.016617776E-03 7.259691272E+04 6.358124163E+01 -1.480840691E-01
 -3.108276435E-03 -9.273906603E-04 7.311214163E+04 5.279864437E+01 -1.649947049E+00
 -3.135825657E-03 -7.310232782E-04 7.311657209E+04 5.272804413E+01 -3.042628732E-01
 -1.442484040E-03 -6.006669543E-04 7.370271461E+04 4.016591005E+01 -1.557099586E+00
 -1.458311337E-03 -4.778435098E-04 7.370913267E+04 4.047522874E+01 -9.086444681E-05
 2.950318352E-05 -3.119902977E-04 7.404393525E+04 3.436079746E+01 -1.112800471E+00
 2.403397564E-05 -2.541545121E-04 7.405077622E+04 3.507172809E+01 5.240576379E-01
 -4.904860300E+00 -3.743658139E-01 6.969596970E+04 1.017577597E+02 1.477906967E-03
 -4.531131773E+00 -3.335794220E-01 6.969600906E+04 1.017573242E+02 2.438855251E-03
 -4.184971036E+00 -2.958002878E-01 6.969608323E+04 1.017564817E+02 4.654155776E-03
 -3.864398384E+00 -2.608124796E-01 6.969615097E+04 1.017556460E+02 7.285211904E-03
 -3.567573493E+00 -2.284152677E-01 6.969622922E+04 1.017546866E+02 1.012327035E-02
 -3.290853543E+00 -2.089095061E-01 6.969633444E+04 1.017534882E+02 1.312683390E-02
 -3.034342477E+00 -1.927918160E-01 6.969646445E+04 1.017520451E+02 1.630719014E-02
 -2.796963016E+00 -1.778750425E-01 6.969661631E+04 1.017503683E+02 1.969081277E-02
 -2.577330402E+00 -1.640722843E-01 6.969679398E+04 1.017484144E+02 2.330168519E-02
 -2.374157947E+00 -1.513027939E-01 6.969700175E+04 1.017461383E+02 2.716622911E-02
 -2.186250209E+00 -1.394915492E-01 6.969724352E+04 1.017434957E+02 3.131300146E-02
 -2.012496623E+00 -1.285688533E-01 6.969752423E+04 1.017404317E+02 3.577250988E-02
 -1.851865578E+00 -1.184699639E-01 6.969784981E+04 1.017368819E+02 4.057648524E-02
 -1.703398902E+00 -1.091347467E-01 6.969822705E+04 1.017327718E+02 4.575808417E-02
 -1.566206724E+00 -1.005073533E-01 6.969866387E+04 1.017280152E+02 5.135265832E-02
 -1.439462693E+00 -9.253592171E-02 6.969916955E+04 1.017225108E+02 5.739727703E-02
 -1.322399526E+00 -8.517229687E-02 6.969975489E+04 1.017161410E+02 6.393067252E-02
 -1.214304862E+00 -7.837177109E-02 6.970043247E+04 1.017087684E+02 7.099334167E-02
 -1.114517409E+00 -7.209284221E-02 6.970121699E+04 1.017002332E+02 7.862746873E-02
 -1.022423348E+00 -6.629698848E-02 6.970212557E+04 1.016903485E+02 8.687681338E-02
 -9.374529946E-01 -6.094845918E-02 6.970317817E+04 1.016788968E+02 9.578661119E-02
 -8.590776888E-01 -5.601407963E-02 6.970439803E+04 1.016656249E+02 1.054034054E-01
 -7.868068984E-01 -5.146306981E-02 6.970581219E+04 1.016502377E+02 1.157747970E-01
 -7.201855275E-01 -4.726687552E-02 6.970745213E+04 1.016323919E+02 1.269491531E-01
 -6.587914101E-01 -4.339901120E-02 6.970935442E+04 1.016116882E+02 1.389752749E-01
 -6.022329783E-01 -3.983491374E-02 6.971156153E+04 1.015876627E+02 1.519018951E-01
 -5.501470930E-01 -3.655180635E-02 6.971412272E+04 1.015597767E+02 1.657772642E-01
 -5.021970263E-01 -3.352857188E-02 6.971709509E+04 1.015274056E+02 1.806482397E-01
 -4.580705837E-01 -3.074563487E-02 6.972054470E+04 1.014898255E+02 1.965599480E-01
 -4.174783585E-01 -2.818485180E-02 6.972454797E+04 1.014461986E+02 2.135542177E-01
 -3.801521075E-01 -2.582940892E-02 6.972919308E+04 1.013955561E+02 2.316690013E-01
 -3.458432412E-01 -2.366372707E-02 6.973458177E+04 1.013367787E+02 2.509371657E-01
 -3.143214189E-01 -2.167337314E-02 6.974083122E+04 1.012685746E+02 2.713845270E-01
 -2.853732427E-01 -1.984497759E-02 6.974807621E+04 1.011894542E+02 2.930287062E-01
 -2.588010439E-01 -1.816615769E-02 6.975647164E+04 1.010977015E+02 3.158768874E-01
 -2.344217532E-01 -1.662544609E-02 6.976619521E+04 1.009913407E+02 3.399233137E-01
 -2.120658521E-01 -1.521222432E-02 6.977745074E+04 1.008680979E+02 3.651453195E-01
 -1.915763969E-01 -1.391666092E-02 6.979047172E+04 1.007253567E+02 3.914999571E-01
 -1.728081120E-01 -1.272965398E-02 6.980552552E+04 1.005601054E+02 4.189189223E-01
 -1.556265477E-01 -1.164277765E-02 6.982291832E+04 1.003688760E+02 4.473012640E-01
 -1.399072965E-01 -1.064823257E-02 6.984300078E+04 1.001476675E+02 4.765077055E-01
 -1.255352659E-01 -9.738799756E-03 6.986617474E+04 9.989186351E+01 5.063399005E-01
 -1.124040021E-01 -8.907797983E-03 6.989290037E+04 9.959612667E+01 5.365341476E-01
 -1.004150620E-01 -8.149044176E-03 6.992370677E+04 9.925424956E+01 5.667419865E-01
 -8.947742967E-02 -7.456816824E-03 6.995920529E+04 9.885898308E+01 5.964854661E-01
 -7.950697450E-02 -6.825822114E-03 7.000010241E+04 9.840183462E+01 6.251244911E-01
 -7.042594782E-02 -6.251162620E-03 7.004721744E+04 9.787280219E+01 6.517867457E-01
 -6.216251546E-02 -5.728308384E-03 7.010150711E+04 9.725997730E+01 6.753100854E-01
 -5.465032378E-02 -5.253070170E-03 7.016409650E+04 9.654911021E+01 6.940512496E-01
 -4.782809665E-02 -4.821574734E-03 7.023631042E+04 9.572287001E+01 7.058624440E-01
 -4.163926139E-02 -4.430241977E-03 7.031971023E+04 9.476068122E+01 7.088590424E-01
 -3.603712365E-02 -4.035469963E-03 7.041610124E+04 9.363706459E+01 7.135225357E-01
 -3.099107641E-02 -3.497625015E-03 7.052781059E+04 9.231933938E+01 7.346881092E-01
 -2.643081944E-02 -3.011663920E-03 7.065774653E+04 9.076349174E+01 7.652697927E-01
 -2.231559332E-02 -2.573228330E-03 7.080968654E+04 8.891435922E+01 7.963151659E-01
 -1.860782034E-02 -2.178298537E-03 7.098816772E+04 8.668993383E+01 8.261397074E-01
 -1.527286697E-02 -1.823168685E-03 7.119994025E+04 8.399210074E+01 8.595192534E-01
 -1.227882353E-02 -1.504423706E-03 7.145218899E+04 8.063526969E+01 8.846196144E-01
 -9.596299841E-03 -1.218917864E-03 7.175941688E+04 7.643335034E+01 9.264850507E-01
 -7.198235763E-03 -9.637547713E-04 7.212971739E+04 7.083624149E+01 9.189543673E-01
 -5.059725452E-03 -7.362687903E-04 7.259727695E+04 6.356725274E+01 1.014439089E+00
 -3.157854497E-03 -5.340076351E-04 7.311655471E+04 5.272897631E+01 9.834122612E-01
 -1.471548926E-03 -3.547159639E-04 7.371048742E+04 4.083042670E+01 1.552355869E+00
 1.856476775E-05 -1.963187265E-04 7.405270208E+04 3.577455190E+01 2.291741030E+00
 -4.916318661E+00 -1.667794339E-01 6.969584916E+04 1.017582235E+02 1.702928659E-03
 -4.541379424E+00 -1.441754329E-01 6.969588279E+04 1.017578611E+02 2.689577214E-03
 -4.194097298E+00 -1.232374944E-01 6.969594684E+04 1.017571582E+02 4.959276261E-03
 -3.872486164E+00 -1.038459963E-01 6.969600645E+04 1.017564524E+02 7.650439229E-03
 -3.574699735E+00 -8.588974026E-02 6.969607645E+04 1.017556219E+02 1.055701649E-02
 -3.297381598E+00 -7.783584484E-02 6.969617157E+04 1.017545606E+02 1.364391474E-02
 -3.040366301E+00 -7.191822730E-02 6.969629012E+04 1.017532622E+02 1.692343538E-02
 -2.802520225E+00 -6.644076474E-02 6.969642983E+04 1.017517347E+02 2.041937668E-02
 -2.582455889E+00 -6.137162039E-02 6.969659451E+04 1.017499371E+02 2.415704880E-02
 -2.378884076E+00 -5.668121138E-02 6.969678831E+04 1.017478261E+02 2.816612835E-02
 -2.190606991E+00 -5.234205170E-02 6.969701506E+04 1.017453581E+02 3.247781011E-02
 -2.016511886E+00 -4.832860597E-02 6.969727965E+04 1.017424799E+02 3.712507341E-02
 -1.855565122E+00 -4.461715337E-02 6.969758789E+04 1.017391278E+02 4.214419645E-02
 -1.706806641E+00 -4.118566100E-02 6.969794652E+04 1.017352288E+02 4.757319694E-02
 -1.569344823E+00 -3.801366604E-02 6.969836334E+04 1.017306974E+02 5.345188867E-02
 -1.442351692E+00 -3.508216601E-02 6.969884754E+04 1.017254339E+02 5.982332935E-02
 -1.325058455E+00 -3.237351675E-02 6.969940984E+04 1.017193214E+02 6.673322768E-02
 -1.216751354E+00 -2.987133737E-02 6.970006274E+04 1.017122237E+02 7.422994969E-02
 -1.116767792E+00 -2.756042189E-02 6.970082086E+04 1.017039816E+02 8.236480435E-02
 -1.024492747E+00 -2.542665691E-02 6.970170124E+04 1.016944094E+02 9.119209045E-02
 -9.393554128E-01 -2.345694511E-02 6.970272378E+04 1.016832905E+02 1.007691361E-01
 -8.608260898E-01 -2.163913391E-02 6.970391163E+04 1.016703722E+02 1.111563694E-01
 -7.884132816E-01 -1.996194919E-02 6.970529180E+04 1.016553601E+02 1.224173205E-01
 -7.216609977E-01 -1.841493356E-02 6.970689570E+04 1.016379115E+02 1.346185747E-01
 -6.601462421E-01 -1.698838881E-02 6.970875986E+04 1.016176276E+02 1.478297124E-01
 -6.034766771E-01 -1.567332245E-02 6.971092673E+04 1.015940445E+02 1.621231713E-01
 -5.512884499E-01 -1.446139781E-02 6.971344557E+04 1.015666240E+02 1.775740577E-01
 -5.032441704E-01 -1.334488763E-02 6.971637346E+04 1.015347411E+02 1.942597610E-01
 -4.590310305E-01 -1.231663076E-02 6.971977651E+04 1.014976717E+02 2.122597750E-01
 -4.183590544E-01 -1.136999181E-02 6.972373115E+04 1.014545774E+02 2.316547937E-01
 -3.809594719E-01 -1.049882356E-02 6.972832565E+04 1.014044884E+02 2.525268086E-01
 -3.465832046E-01 -9.697431861E-03 6.973366184E+04 1.013462845E+02 2.749575055E-01
 -3.149994590E-01 -8.960542919E-03 6.973985698E+04 1.012786724E+02 2.990279823E-01
 -2.859944178E-01 -8.283272760E-03 6.974704601E+04 1.012001608E+02 3.248175475E-01
 -2.593700235E-01 -7.661098761E-03 6.975538394E+04 1.011090318E+02 3.524015745E-01
 -2.349428471E-01 -7.089833090E-03 6.976504868E+04 1.010033071E+02 3.818509357E-01
 -2.125430367E-01 -6.565597957E-03 6.977624429E+04 1.008807094E+02 4.132283685E-01
 -1.920133400E-01 -6.084802561E-03 6.978920451E+04 1.007386191E+02 4.465866680E-01
 -1.732081959E-01 -5.644121642E-03 6.980419703E+04 1.005740202E+02 4.819643671E-01
 -1.559928901E-01 -5.240475558E-03 6.982152839E+04 1.003834394E+02 5.193802498E-01
 -1.402427706E-01 -4.871011809E-03 6.984154971E+04 1.001628707E+02 5.588294346E-01
 -1.258425185E-01 -4.533087923E-03 6.986466339E+04 9.990768745E+01 6.002666036E-01
 -1.126854708E-01 -4.224255657E-03 6.989133044E+04 9.961254118E+01 6.436030650E-01
 -1.006729907E-01 -3.942246422E-03 6.992208103E+04 9.927121498E+01 6.886891099E-01
 -8.971388336E-02 -3.684957877E-03 6.995752774E+04 9.887644386E+01 7.352793022E-01
 -7.972385277E-02 -3.450441614E-03 6.999837889E+04 9.841971080E+01 7.830098839E-01
 -7.062499738E-02 -3.236891868E-03 7.004545657E+04 9.789098200E+01 8.313389716E-01
 -6.234534184E-02 -3.042635171E-03 7.009972108E+04 9.727830091E+01 8.794937941E-01
 -5.481840207E-02 -2.866120867E-03 7.016230316E+04 9.656736508E+01 9.263194923E-01
 -4.798278153E-02 -2.705912406E-03 7.023453300E+04 9.574072937E+01 9.702759890E-01
 -4.178179641E-02 -2.560679358E-03 7.031797774E+04 9.477786501E+01 1.010092777E+00
 -3.616729771E-02 -2.392998130E-03 7.041440761E+04 9.365355124E+01 1.055954347E+00
 -3.110379817E-02 -2.076927090E-03 7.052608362E+04 9.233577342E+01 1.121982713E+00
 -2.652776898E-02 -1.791388808E-03 7.065594036E+04 9.078046209E+01 1.202744141E+00
 -2.239830973E-02 -1.533816485E-03 7.080779062E+04 8.893169477E+01 1.291138039E+00
 -1.867771277E-02 -1.301842111E-03 7.098618981E+04 8.670771233E+01 1.388127290E+00
 -1.533122481E-02 -1.093282103E-03 7.119782904E+04 8.401014120E+01 1.498812652E+00
 -1.232682583E-02 -9.061239298E-04 7.145000398E+04 8.065372741E+01 1.619768560E+00
 -9.635024027E-03 -7.385136328E-04 7.175698655E+04 7.645193704E+01 1.770548600E+00
 -7.228665687E-03 -5.887441797E-04 7.212733198E+04 7.085403007E+01 1.917286576E+00
 -5.082758851E-03 -4.552445839E-04 7.259426227E+04 6.358693902E+01 2.171771597E+00
 -3.174309872E-03 -3.365696745E-04 7.311349917E+04 5.278298755E+01 2.228562896E+00
 -1.482171901E-03 -2.313903112E-04 7.370639212E+04 4.085918938E+01 3.070275598E+00
 1.309555987E-05 -1.384829409E-04 7.404665891E+04 3.574606822E+01 4.053027340E+00
 -4.919121367E+00 4.110405248E-02 6.969572609E+04 1.017587051E+02 1.903857624E-03
 -4.543634950E+00 4.550288102E-02 6.969575396E+04 1.017584169E+02 2.915490067E-03
 -4.195846022E+00 4.957853153E-02 6.969580764E+04 1.017578568E+02 5.239804764E-03
 -3.873765561E+00 5.335418956E-02 6.969585886E+04 1.017572841E+02 7.991535416E-03
 -3.575544586E+00 5.685141042E-02 6.969592048E+04 1.017565852E+02 1.096440182E-02
 -3.298116022E+00 5.343594507E-02 6.969600523E+04 1.017556658E+02 1.413025637E-02
 -3.041048057E+00 4.913801361E-02 6.969611181E+04 1.017545192E+02 1.750352081E-02
 -2.803153251E+00 4.516184419E-02 6.969623882E+04 1.017531485E+02 2.110651470E-02
 -2.583043836E+00 4.148412547E-02 6.969638993E+04 1.017515148E+02 2.496593601E-02
 -2.379430330E+00 3.808319799E-02 6.969656906E+04 1.017495769E+02 2.911409039E-02
 -2.191114693E+00 3.493893912E-02 6.969678001E+04 1.017472928E+02 3.358545869E-02
 -2.016983946E+00 3.203265592E-02 6.969702754E+04 1.017446107E+02 3.841600820E-02
 -1.856004238E+00 2.934698525E-02 6.969731736E+04 1.017414688E+02 4.364473546E-02
 -1.707215314E+00 2.686580071E-02 6.969765611E+04 1.017377949E+02 4.931490895E-02
 -1.569725370E+00 2.457412596E-02 6.969805150E+04 1.017335050E+02 5.547207237E-02
 -1.442706260E+00 2.245805396E-02 6.969851256E+04 1.017285006E+02 6.216434925E-02
 -1.325389034E+00 2.050467177E-02 6.969904990E+04 1.017226665E+02 6.944441308E-02
 -1.217059784E+00 1.870199049E-02 6.969967591E+04 1.017158678E+02 7.736880680E-02
 -1.117055781E+00 1.703888004E-02 6.970040507E+04 1.017079467E+02 8.599793341E-02
 -1.024761874E+00 1.550500845E-02 6.970125432E+04 1.016987190E+02 9.539658242E-02
 -9.396071411E-01 1.409078533E-02 6.970224342E+04 1.016879694E+02 1.056342494E-01
 -8.610617729E-01 1.278730928E-02 6.970339540E+04 1.016754465E+02 1.167853247E-01
 -7.886341727E-01 1.158631894E-02 6.970473715E+04 1.016608575E+02 1.289293235E-01
 -7.218682563E-01 1.048014748E-02 6.970629994E+04 1.016438609E+02 1.421511228E-01
 -6.603409408E-01 9.461680285E-03 6.970812021E+04 1.016240590E+02 1.565411753E-01
 -6.036598083E-01 8.524315623E-03 6.971024029E+04 1.016009895E+02 1.721956861E-01
 -5.514609311E-01 7.661928107E-03 6.971270931E+04 1.015741149E+02 1.892167530E-01
 -5.034068500E-01 6.868834771E-03 6.971558428E+04 1.015428114E+02 2.077124181E-01
 -4.591846928E-01 6.139763593E-03 6.971893121E+04 1.015063557E+02 2.277967166E-01
 -4.185044244E-01 5.469824299E-03 6.972282645E+04 1.014639101E+02 2.495894598E-01
 -3.810972193E-01 4.854481309E-03 6.972735823E+04 1.014145054E+02 2.732164057E-01
 -3.467139482E-01 4.289528666E-03 6.973262829E+04 1.013570216E+02 2.988083292E-01
 -3.151237701E-01 3.771066832E-03 6.973875388E+04 1.012901656E+02 3.265020426E-01
 -2.861128240E-01 3.295481205E-03 6.974586991E+04 1.012124459E+02 3.564383381E-01
 -2.594830117E-01 2.859422237E-03 6.975413138E+04 1.011221445E+02 3.887612566E-01
 -2.350508667E-01 2.459787036E-03 6.976371621E+04 1.010172822E+02 4.236190844E-01
 -2.126465020E-01 2.093702320E-03 6.977482848E+04 1.008955812E+02 4.611602158E-01
 -1.921126332E-01 1.758508623E-03 6.978770195E+04 1.007544205E+02 5.015324974E-01
 -1.733036692E-01 1.451745629E-03 6.980260437E+04 1.005907829E+02 5.448811462E-01
 -1.560848681E-01 1.171138539E-03 6.981984233E+04 1.004011927E+02 5.913450346E-01
 -1.403315522E-01 9.145853592E-04 6.983976704E+04 1.001816430E+02 6.410563200E-01
 -1.259283790E-01 6.801450357E-04 6.986278100E+04 9.992750164E+01 6.941226286E-01
 -1.127686634E-01 4.660263280E-04 6.988934552E+04 9.963341489E+01 7.506283104E-01
 -1.007537485E-01 2.705773680E-04 6.991999113E+04 9.929316417E+01 8.106245894E-01
 -8.979242059E-02 9.227582922E-05 6.995533071E+04 9.889947828E+01 8.740997951E-01
 -7.980036642E-02 -7.028034293E-05 6.999607312E+04 9.844382892E+01 9.409668831E-01
 -7.069966845E-02 -2.183816868E-04 7.004304163E+04 9.791616826E+01 1.011015488E+00
 -6.241833656E-02 -3.532154950E-04 7.009719784E+04 9.730451565E+01 1.083875288E+00
 -5.488987309E-02 -4.758736130E-04 7.015967515E+04 9.659454527E+01 1.158887163E+00
 -4.805286895E-02 -5.873597844E-04 7.023180585E+04 9.576874576E+01 1.235128187E+00
 -4.185062876E-02 -6.885965659E-04 7.031516063E+04 9.480662049E+01 1.311922946E+00
 -3.623363900E-02 -7.483515661E-04 7.041148603E+04 9.368314071E+01 1.399054750E+00
 -3.116162060E-02 -6.543578397E-04 7.052299545E+04 9.236677900E+01 1.509976898E+00
 -2.657789259E-02 -5.695168852E-04 7.065263334E+04 9.081344918E+01 1.641006516E+00
 -2.244148578E-02 -4.930558176E-04 7.080423502E+04 8.896681876E+01 1.786713851E+00
 -1.871462906E-02 -4.242604980E-04 7.098235367E+04 8.674528335E+01 1.950766450E+00
 -1.536251069E-02 -3.624716334E-04 7.119364828E+04 8.405056292E+01 2.138119463E+00
 -1.235305681E-02 -3.070810918E-04 7.144543634E+04 8.069750925E+01 2.354553315E+00
 -9.656726031E-03 -2.575284181E-04 7.175189960E+04 7.649989429E+01 2.611619690E+00
 -7.246318963E-03 -2.132975284E-04 7.212170608E+04 7.090791986E+01 2.912710328E+00
 -5.096801623E-03 -1.739135634E-04 7.258798583E+04 6.363881649E+01 3.314179873E+00
 -3.185141697E-03 -1.389398330E-04 7.310754324E+04 5.285385018E+01 3.512533239E+00
 -1.490156770E-03 -1.079746537E-04 7.369708851E+04 4.051637081E+01 4.590404186E+00
 7.626351982E-06 -8.064715534E-05 7.403324533E+04 3.496496336E+01 5.711190922E+00
 -4.913313371E+00 2.489252871E-01 6.969560040E+04 1.017592031E+02 2.070476660E-03
 -4.537939855E+00 2.351237158E-01 6.969562252E+04 1.017589906E+02 3.104895570E-03
 -4.190255515E+00 2.223414998E-01 6.969566556E+04 1.017585780E+02 5.481030041E-03
 -3.868271925E+00 2.105054163E-01 6.969570805E+04 1.017581429E+02 8.293626796E-03
 -3.570140656E+00 1.995474016E-01 6.969576113E+04 1.017575781E+02 1.133503859E-02
 -3.293086938E+00 1.846653313E-01 6.969583519E+04 1.017568047E+02 1.458146097E-02
 -3.036415522E+00 1.701551216E-01 6.969592934E+04 1.017558162E+02 1.804812409E-02
 -2.798887698E+00 1.567283482E-01 6.969604315E+04 1.017546092E+02 2.175648990E-02
 -2.579117837E+00 1.443065692E-01 6.969618009E+04 1.017531468E+02 2.573527714E-02
 -2.375818446E+00 1.328168990E-01 6.969634385E+04 1.017513905E+02 3.001922833E-02
 -2.187793331E+00 1.221916215E-01 6.969653819E+04 1.017492995E+02 3.464554386E-02
 -2.013931229E+00 1.123678294E-01 6.969676775E+04 1.017468236E+02 3.965433313E-02
 -1.853199882E+00 1.032870888E-01 6.969703809E+04 1.017439033E+02 4.508841098E-02
 -1.704640518E+00 9.489512614E-02 6.969735569E+04 1.017404684E+02 5.099413099E-02
 -1.567362706E+00 8.714153717E-02 6.969772817E+04 1.017364361E+02 5.742313225E-02
 -1.440539578E+00 7.997951589E-02 6.969816443E+04 1.017317093E+02 6.443033792E-02
 -1.323403369E+00 7.336560204E-02 6.969867488E+04 1.017261748E+02 7.207423039E-02
 -1.215241273E+00 6.725944604E-02 6.969927176E+04 1.017196995E+02 8.041926025E-02
 -1.115391582E+00 6.162359018E-02 6.969996940E+04 1.017121275E+02 8.953531526E-02
 -1.023240093E+00 5.642326500E-02 6.970078456E+04 1.017032764E+02 9.949770544E-02
 -9.382167648E-01 5.162619968E-02 6.970173683E+04 1.016929330E+02 1.103879598E-01
 -8.597926062E-01 4.720244561E-02 6.970284905E+04 1.016808479E+02 1.222944404E-01
 -7.874767781E-01 4.312421225E-02 6.970414791E+04 1.016667304E+02 1.353126662E-01
 -7.208138996E-01 3.936571436E-02 6.970566453E+04 1.016502410E+02 1.495457622E-01
 -6.593815405E-01 3.590302992E-02 6.970743510E+04 1.016309843E+02 1.651050200E-01
 -6.027878880E-01 3.271396796E-02 6.970950177E+04 1.016084999E+02 1.821103927E-01
 -5.506695759E-01 2.977794567E-02 6.971191349E+04 1.015822526E+02 2.006909416E-01
 -5.026896655E-01 2.707587411E-02 6.971472704E+04 1.015516207E+02 2.209852572E-01
 -4.585357672E-01 2.459005203E-02 6.971800826E+04 1.015158829E+02 2.431418777E-01
 -4.179182932E-01 2.230406713E-02 6.972183330E+04 1.014742033E+02 2.673195953E-01
 -3.805688327E-01 2.020270436E-02 6.972629017E+04 1.014256147E+02 2.936878469E-01
 -3.462386407E-01 1.827186073E-02 6.973148047E+04 1.013689988E+02 3.224267040E-01
 -3.146972323E-01 1.649846619E-02 6.973752124E+04 1.013030641E+02 3.537275751E-01
 -2.857310764E-01 1.487041014E-02 6.974454720E+04 1.012263210E+02 3.877922872E-01
 -2.591423803E-01 1.337647325E-02 6.975271319E+04 1.011370522E+02 4.248338823E-01