TITLE     = "fluent22.1.0  build-id: 10213"
VARIABLES = "X"
"Y"
"Pressure"
"X Velocity"
"Y Velocity"
DATASETAUXDATA Common.DensityVar="23"
DATASETAUXDATA Common.PressureVar="3"
DATASETAUXDATA Common.TemperatureVar="12"
DATASETAUXDATA Common.TurbulentDynamicViscosityVar="17"
DATASETAUXDATA Common.UVar="5"
DATASETAUXDATA Common.VectorVarsAreVelocity="TRUE"
DATASETAUXDATA Common.ViscosityVar="25"
DATASETAUXDATA Common.VVar="7"
ZONE T="fluid"
 STRANDID=1, SOLUTIONTIME=0.3625
 Nodes=10240, Elements=10080, ZONETYPE=FEQuadrilateral
 DATAPACKING=POINT
 DT=(DOUBLE DOUBLE DOUBLE DOUBLE DOUBLE )
 -4.856290020E+00 -7.872354469E-01 6.969624422E+04 1.017567285E+02 1.089059801E-03
 -4.486949563E+00 -7.102630440E-01 6.969629622E+04 1.017561317E+02 2.082612959E-03
 -4.884823481E+00 -5.813004056E-01 6.969611902E+04 1.017571921E+02 1.374413411E-03
 -4.512963349E+00 -5.223837870E-01 6.969616476E+04 1.017566708E+02 2.397458548E-03
 -4.144853180E+00 -6.389669914E-01 6.969639220E+04 1.017549817E+02 4.392321883E-03
 -4.168533168E+00 -4.678116751E-01 6.969624996E+04 1.017556646E+02 4.765148438E-03
 -3.828044414E+00 -5.729397035E-01 6.969647700E+04 1.017538569E+02 7.155285551E-03
 -3.849563132E+00 -4.172721161E-01 6.969632628E+04 1.017546748E+02 7.587852601E-03
 -3.534704554E+00 -5.118022736E-01 6.969657293E+04 1.017526073E+02 1.012957437E-02
 -3.554222121E+00 -3.704751135E-01 6.969641344E+04 1.017535617E+02 1.063194135E-02
 -3.260626437E+00 -4.695261136E-01 6.969669983E+04 1.017511020E+02 1.325318771E-02
 -3.278583756E+00 -3.395562647E-01 6.969653004E+04 1.017521990E+02 1.384317207E-02
 -3.006462223E+00 -4.331294855E-01 6.969685430E+04 1.017493355E+02 1.653657875E-02
 -3.023024497E+00 -3.132736015E-01 6.969667322E+04 1.017505805E+02 1.723188986E-02
 -2.771254555E+00 -3.994461687E-01 6.969703204E+04 1.017473263E+02 2.001445777E-02
 -2.786525841E+00 -2.889499130E-01 6.969683902E+04 1.017487237E+02 2.082960244E-02
 -2.553631347E+00 -3.682797960E-01 6.969723733E+04 1.017450275E+02 2.370983368E-02
 -2.567708170E+00 -2.664434310E-01 6.969703156E+04 1.017465830E+02 2.466061018E-02
 -2.352317688E+00 -3.394479065E-01 6.969747466E+04 1.017423907E+02 2.764626465E-02
 -2.365289573E+00 -2.456224269E-01 6.969725529E+04 1.017441113E+02 2.875047196E-02
 -2.166129073E+00 -3.127809766E-01 6.969774802E+04 1.017393693E+02 3.184899619E-02
 -2.178079045E+00 -2.263645120E-01 6.969751417E+04 1.017412627E+02 3.312743056E-02
 -1.993965102E+00 -2.881215185E-01 6.969806253E+04 1.017359062E+02 3.634363491E-02
 -2.004970142E+00 -2.085559866E-01 6.969781326E+04 1.017379810E+02 3.782089358E-02
 -1.834803603E+00 -2.653232394E-01 6.969842429E+04 1.017319346E+02 4.115698980E-02
 -1.844935082E+00 -1.920912331E-01 6.969815856E+04 1.017342005E+02 4.286112131E-02
 -1.687695172E+00 -2.442502601E-01 6.969884025E+04 1.017273780E+02 4.631668580E-02
 -1.697019250E+00 -1.768721521E-01 6.969855697E+04 1.017298455E+02 4.827995039E-02
 -1.551758082E+00 -2.247763866E-01 6.969931845E+04 1.017221482E+02 5.185086912E-02
 -1.560336078E+00 -1.628076361E-01 6.969901651E+04 1.017248282E+02 5.411070127E-02
 -1.426173543E+00 -2.067844323E-01 6.969986829E+04 1.017161424E+02 5.778806719E-02
 -1.434062281E+00 -1.498130809E-01 6.969954653E+04 1.017190467E+02 6.038780899E-02
 -1.310181292E+00 -1.901655870E-01 6.970050067E+04 1.017092414E+02 6.415698723E-02
 -1.317433423E+00 -1.378099295E-01 6.970015792E+04 1.017123820E+02 6.714676508E-02
 -1.203075488E+00 -1.748188297E-01 6.970122828E+04 1.017013068E+02 7.098622814E-02
 -1.209739790E+00 -1.267252485E-01 6.970086333E+04 1.017046960E+02 7.442404055E-02
 -1.104200889E+00 -1.606503816E-01 6.970206586E+04 1.016921773E+02 7.830395343E-02
 -1.110322540E+00 -1.164913336E-01 6.970167752E+04 1.016958278E+02 8.225688278E-02
 -1.012949293E+00 -1.475731975E-01 6.970303060E+04 1.016816659E+02 8.613747677E-02
 -1.018570135E+00 -1.070453418E-01 6.970261767E+04 1.016855900E+02 9.068306106E-02
 -9.287562292E-01 -1.355064921E-01 6.970414246E+04 1.016695544E+02 9.451277367E-02
 -9.339150043E-01 -9.832895006E-02 6.970370378E+04 1.016737645E+02 9.974057089E-02
 -8.510978731E-01 -1.243752993E-01 6.970542468E+04 1.016555897E+02 1.034538852E-01
 -8.558304487E-01 -9.028803698E-02 6.970495913E+04 1.016600975E+02 1.094672569E-01
 -7.794881816E-01 -1.141100617E-01 6.970690424E+04 1.016394770E+02 1.129822176E-01
 -7.838277571E-01 -8.287238662E-02 6.970641079E+04 1.016442936E+02 1.199003462E-01
 -7.134762229E-01 -1.046462495E-01 6.970861253E+04 1.016208739E+02 1.231157922E-01
 -7.174535225E-01 -7.603541310E-02 6.970809023E+04 1.016260093E+02 1.310759453E-01
 -6.526436935E-01 -9.592400458E-02 6.971058601E+04 1.015993823E+02 1.338683568E-01
 -6.562871453E-01 -6.973390411E-02 6.971003400E+04 1.016048454E+02 1.430284037E-01
 -5.966026083E-01 -8.788781053E-02 6.971286697E+04 1.015745402E+02 1.452483863E-01
 -5.999385109E-01 -6.392778235E-02 6.971228456E+04 1.015803383E+02 1.557896331E-01
 -5.449931510E-01 -8.048618472E-02 6.971550444E+04 1.015458114E+02 1.572577955E-01
 -5.480458278E-01 -5.857988343E-02 6.971489112E+04 1.015519497E+02 1.693881675E-01
 -4.974816743E-01 -7.367139225E-02 6.971855523E+04 1.015125744E+02 1.698904915E-01
 -5.002736176E-01 -5.365574926E-02 6.971791068E+04 1.015190557E+02 1.838482042E-01
 -4.537588402E-01 -6.739917959E-02 6.972208506E+04 1.014741093E+02 1.831309237E-01
 -4.563108442E-01 -4.912343572E-02 6.972140922E+04 1.014809338E+02 1.991882205E-01
 -4.135378900E-01 -6.162852680E-02 6.972616991E+04 1.014295826E+02 1.969525566E-01
 -4.158691751E-01 -4.495333372E-02 6.972546301E+04 1.014367471E+02 2.154201639E-01
 -3.765530349E-01 -5.632141691E-02 6.973089754E+04 1.013780308E+02 2.113158176E-01
 -3.786813624E-01 -4.111800260E-02 6.973016010E+04 1.013855287E+02 2.325475759E-01
 -3.425579598E-01 -5.144262141E-02 6.973636914E+04 1.013183406E+02 2.261660502E-01
 -3.444997392E-01 -3.759201518E-02 6.973560204E+04 1.013261613E+02 2.505638755E-01
 -3.113244315E-01 -4.695950059E-02 6.974270126E+04 1.012492272E+02 2.414308532E-01
 -3.130948195E-01 -3.435181351E-02 6.974190578E+04 1.012573553E+02 2.694506997E-01
 -2.826410049E-01 -4.284181781E-02 6.975002802E+04 1.011692090E+02 2.570172654E-01
 -2.842539976E-01 -3.137557455E-02 6.974920589E+04 1.011776238E+02 2.891755614E-01
 -2.563118198E-01 -3.906156670E-02 6.975850350E+04 1.010765788E+02 2.728086227E-01
 -2.577803381E-01 -2.864308535E-02 6.975765697E+04 1.010852539E+02 3.096890197E-01
 -2.321554820E-01 -3.559281036E-02 6.976830457E+04 1.009693709E+02 2.886603785E-01
 -2.334914513E-01 -2.613562674E-02 6.976743642E+04 1.009782734E+02 3.309210687E-01
 -2.100040243E-01 -3.241153191E-02 6.977963402E+04 1.008453232E+02 3.043955933E-01
 -2.112184478E-01 -2.383586526E-02 6.977874767E+04 1.008544126E+02 3.527777642E-01
 -1.897019391E-01 -2.949549541E-02 6.979272422E+04 1.007018322E+02 3.197987961E-01
 -1.908049665E-01 -2.172775257E-02 6.979182381E+04 1.007110597E+02 3.751358072E-01
 -1.711052802E-01 -2.682411659E-02 6.980784124E+04 1.005359016E+02 3.346088487E-01
 -1.721062709E-01 -1.979643198E-02 6.980693175E+04 1.005452082E+02 3.978366449E-01
 -1.540808281E-01 -2.437834279E-02 6.982528973E+04 1.003440811E+02 3.485085267E-01
 -1.549884104E-01 -1.802815156E-02 6.982437712E+04 1.003533967E+02 4.206775835E-01
 -1.385053139E-01 -2.214054130E-02 6.984541848E+04 1.001223926E+02 3.611161103E-01
 -1.393274392E-01 -1.641018346E-02 6.984450993E+04 1.001316318E+02 4.434052041E-01
 -1.242646982E-01 -2.009439578E-02 6.986862689E+04 9.986624585E+01 3.719579874E-01
 -1.250086921E-01 -1.493074900E-02 6.986773112E+04 9.987530721E+01 4.656894454E-01
 -1.112535015E-01 -1.822481005E-02 6.989537218E+04 9.957033838E+01 3.804573630E-01
 -1.119261102E-01 -1.357894910E-02 6.989449975E+04 9.957909858E+01 4.871166364E-01
 -9.937418145E-02 -1.651781892E-02 6.992617975E+04 9.922851067E+01 3.859098540E-01
 -9.998161600E-02 -1.234469992E-02 6.992534361E+04 9.923681500E+01 5.071684759E-01
 -8.853655502E-02 -1.496050541E-02 6.996165580E+04 9.883357212E+01 3.874221502E-01
 -8.908453127E-02 -1.121867307E-02 6.996087219E+04 9.884122749E+01 5.251667447E-01
 -7.865726138E-02 -1.354092405E-02 7.000250077E+04 9.837709962E+01 3.838659720E-01
 -7.915103762E-02 -1.019224029E-02 7.000178950E+04 9.838387223E+01 5.402359133E-01
 -6.965926321E-02 -1.224802985E-02 7.004952411E+04 9.784919213E+01 3.737544280E-01
 -7.010367486E-02 -9.257422250E-03 7.004891130E+04 9.785478673E+01 5.512121439E-01
 -6.147138355E-02 -1.107161245E-02 7.010366742E+04 9.723814166E+01 3.551808408E-01
 -6.187087537E-02 -8.406841110E-03 7.010318968E+04 9.724212487E+01 5.565765025E-01
 -5.402787573E-02 -1.000223516E-02 7.016603718E+04 9.652989508E+01 3.256343116E-01
 -5.438653163E-02 -7.633676657E-03 7.016574245E+04 9.653171050E+01 5.542564190E-01
 -4.726802415E-02 -9.031178364E-03 7.023794080E+04 9.570745678E+01 2.819599648E-01
 -4.758959482E-02 -6.931625622E-03 7.023788681E+04 9.570634725E+01 5.415924365E-01
 -4.113577353E-02 -8.150387247E-03 7.032092494E+04 9.475015908E+01 2.212014336E-01
 -4.142370206E-02 -6.294864083E-03 7.032117624E+04 9.474544233E+01 5.162129323E-01
 -3.558760330E-02 -7.303954641E-03 7.041690576E+04 9.363139390E+01 1.546888070E-01
 -3.584370223E-02 -5.673626613E-03 7.041745259E+04 9.362317356E+01 4.892171236E-01
 -3.060293385E-02 -6.324823336E-03 7.052836305E+04 9.231700561E+01 9.824946149E-02
 -3.082395733E-02 -4.914571957E-03 7.052911651E+04 9.230611799E+01 4.761628159E-01
 -2.609814628E-02 -5.440068867E-03 7.065810261E+04 9.076354898E+01 4.144559128E-02
 -2.628747094E-02 -4.228705670E-03 7.065904292E+04 9.075037277E+01 4.683098352E-01
 -2.203297687E-02 -4.641766730E-03 7.080982288E+04 8.891778756E+01 -2.761599542E-02
 -2.219369603E-02 -3.609881321E-03 7.081097051E+04 8.890165638E+01 4.552579754E-01
 -1.837030493E-02 -3.922609371E-03 7.098797789E+04 8.669716957E+01 -1.148622618E-01
 -1.850525070E-02 -3.052430599E-03 7.098940323E+04 8.667767162E+01 4.333203216E-01
 -1.507591807E-02 -3.275860658E-03 7.119947037E+04 8.400478601E+01 -2.166411547E-01
 -1.518768190E-02 -2.551128156E-03 7.120116095E+04 8.398074483E+01 4.071031955E-01
 -1.211829467E-02 -2.695313584E-03 7.145110604E+04 8.065424588E+01 -3.574147323E-01
 -1.220924619E-02 -2.101158915E-03 7.145326629E+04 8.062493907E+01 3.583735537E-01
 -9.468401943E-03 -2.175250949E-03 7.175803264E+04 7.646177256E+01 -5.077968457E-01
 -9.540706546E-03 -1.698087674E-03 7.176050970E+04 7.642478581E+01 3.160064599E-01
 -7.099508799E-03 -1.710408826E-03 7.212697166E+04 7.088124858E+01 -7.734016592E-01
 -7.155143805E-03 -1.337830828E-03 7.213038353E+04 7.083254298E+01 1.921113436E-01
 -4.987012265E-03 -1.295942583E-03 7.259518311E+04 6.360326289E+01 -9.690268369E-01
 -5.027781896E-03 -1.016630076E-03 7.259841589E+04 6.355450573E+01 1.633279550E-01
 -3.108276585E-03 -9.273952347E-04 7.311470771E+04 5.275821483E+01 -1.281754395E+00
 -3.135825804E-03 -7.310278692E-04 7.311831172E+04 5.269774214E+01 6.768104980E-02
 -1.442484067E-03 -6.006678110E-04 7.370499281E+04 4.010399977E+01 -1.091012932E+00
 -1.458311364E-03 -4.778443706E-04 7.371044437E+04 4.042254749E+01 4.667254577E-01
 2.950318352E-05 -3.119902977E-04 7.404558305E+04 3.428053811E+01 -5.788561364E-01
 2.403397564E-05 -2.541545121E-04 7.405133262E+04 3.499615626E+01 1.051251276E+00
 -4.904860300E+00 -3.743658139E-01 6.969599001E+04 1.017576788E+02 1.640983441E-03
 -4.531131840E+00 -3.335816088E-01 6.969602974E+04 1.017572343E+02 2.692077490E-03
 -4.184971162E+00 -2.958044085E-01 6.969610450E+04 1.017563746E+02 5.115065840E-03
 -3.864398561E+00 -2.608183013E-01 6.969617255E+04 1.017555228E+02 7.993664417E-03
 -3.567573715E+00 -2.284225762E-01 6.969625117E+04 1.017545484E+02 1.110139806E-02
 -3.290853804E+00 -2.089181115E-01 6.969635731E+04 1.017533322E+02 1.439396031E-02
 -3.034342773E+00 -1.928015380E-01 6.969648870E+04 1.017518670E+02 1.788292558E-02
 -2.796963341E+00 -1.778857135E-01 6.969664202E+04 1.017501680E+02 2.159530709E-02
 -2.577330751E+00 -1.640837507E-01 6.969682123E+04 1.017481914E+02 2.555649942E-02
 -2.374158316E+00 -1.513149148E-01 6.969703068E+04 1.017458913E+02 2.979497939E-02
 -2.186250595E+00 -1.395041950E-01 6.969727426E+04 1.017432235E+02 3.434101219E-02
 -2.012497022E+00 -1.285819055E-01 6.969755696E+04 1.017401329E+02 3.922709672E-02
 -1.851865986E+00 -1.184833137E-01 6.969788471E+04 1.017365547E+02 4.448796400E-02
 -1.703399317E+00 -1.091482946E-01 6.969826433E+04 1.017324144E+02 5.015973725E-02
 -1.566207142E+00 -1.005210083E-01 6.969870375E+04 1.017276253E+02 5.628045928E-02
 -1.439463113E+00 -9.254960056E-02 6.969921226E+04 1.017220862E+02 6.289060308E-02
 -1.322399944E+00 -8.518592373E-02 6.969980069E+04 1.017156791E+02 7.003258587E-02
 -1.214305277E+00 -7.838527688E-02 6.970048163E+04 1.017082664E+02 7.775076174E-02
 -1.114517819E+00 -7.210616418E-02 6.970126981E+04 1.016996880E+02 8.609152027E-02
 -1.022423751E+00 -6.631006985E-02 6.970218236E+04 1.016897569E+02 9.510317443E-02
 -9.374533895E-01 -6.096124878E-02 6.970323925E+04 1.016782553E+02 1.048358241E-01
 -8.590780740E-01 -5.602653162E-02 6.970446374E+04 1.016649297E+02 1.153412190E-01
 -7.868072726E-01 -5.147514342E-02 6.970588290E+04 1.016494847E+02 1.266725416E-01
 -7.201858896E-01 -4.727853485E-02 6.970752822E+04 1.016315766E+02 1.388841419E-01
 -6.587917591E-01 -4.341022505E-02 6.970943628E+04 1.016108060E+02 1.520312061E-01
 -6.022333133E-01 -3.984565547E-02 6.971164959E+04 1.015867085E+02 1.661693471E-01
 -5.501474134E-01 -3.656205372E-02 6.971421742E+04 1.015587453E+02 1.813540370E-01
 -5.021973315E-01 -3.353830698E-02 6.971719688E+04 1.015262911E+02 1.976400532E-01
 -4.580708731E-01 -3.075484402E-02 6.972065408E+04 1.014886219E+02 2.150804629E-01
 -4.174786318E-01 -2.819352546E-02 6.972466543E+04 1.014448992E+02 2.337263917E-01
 -3.801523645E-01 -2.583754156E-02 6.972931918E+04 1.013941539E+02 2.536251379E-01
 -3.458434817E-01 -2.367131711E-02 6.973471706E+04 1.013352660E+02 2.748194323E-01
 -3.143216429E-01 -2.168042281E-02 6.974097629E+04 1.012669432E+02 2.973462346E-01
 -2.853734504E-01 -1.985149276E-02 6.974823169E+04 1.011876955E+02 3.212345009E-01
 -2.588012354E-01 -1.817214776E-02 6.975663817E+04 1.010958057E+02 3.465037834E-01
 -2.344219289E-01 -1.663092372E-02 6.976637353E+04 1.009892974E+02 3.731613245E-01
 -2.120660123E-01 -1.521720523E-02 6.977764159E+04 1.008658958E+02 4.011993486E-01
 -1.915765422E-01 -1.392116362E-02 6.979067593E+04 1.007229829E+02 4.305905164E-01
 -1.728082430E-01 -1.273369944E-02 6.980574400E+04 1.005575457E+02 4.612834389E-01
 -1.556266650E-01 -1.164638900E-02 6.982315207E+04 1.003661146E+02 4.931960975E-01
 -1.399074009E-01 -1.065143469E-02 6.984325096E+04 1.001446862E+02 5.262096832E-01
 -1.255353581E-01 -9.741618960E-03 6.986644265E+04 9.988864165E+01 5.601491707E-01
 -1.124040829E-01 -8.910261568E-03 6.989318751E+04 9.959264029E+01 5.947774577E-01
 -1.004151322E-01 -8.151180051E-03 6.992401496E+04 9.925047025E+01 6.297756504E-01
 -8.947749021E-02 -7.458653118E-03 6.995953668E+04 9.885487753E+01 6.647000319E-01
 -7.950702624E-02 -6.827386797E-03 7.000045961E+04 9.839736269E+01 6.989506561E-01
 -7.042599161E-02 -6.252483157E-03 7.004760374E+04 9.786791516E+01 7.317018936E-01
 -6.216255215E-02 -5.729411411E-03 7.010192659E+04 9.725461433E+01 7.618466771E-01
 -5.465035417E-02 -5.253981221E-03 7.016455436E+04 9.654319900E+01 7.878096555E-01
 -4.782812152E-02 -4.822318004E-03 7.023681273E+04 9.571631409E+01 8.075220288E-01
 -4.163928147E-02 -4.430840130E-03 7.032026364E+04 9.475340290E+01 8.192013329E-01
 -3.603713959E-02 -4.035944007E-03 7.041670425E+04 9.362902853E+01 8.334474039E-01
 -3.099108877E-02 -3.497994222E-03 7.052844936E+04 9.231063083E+01 8.652615081E-01
 -2.643082882E-02 -3.011945715E-03 7.065841295E+04 9.075416050E+01 9.077775697E-01
 -2.231560028E-02 -2.573438317E-03 7.081038195E+04 8.890428740E+01 9.523167569E-01
 -1.860782534E-02 -2.178450532E-03 7.098889385E+04 8.667902502E+01 9.975770142E-01
 -1.527287044E-02 -1.823274777E-03 7.120069255E+04 8.398015793E+01 1.048877216E+00
 -1.227882582E-02 -1.504494351E-03 7.145297301E+04 8.062224550E+01 1.095168513E+00
 -9.596301259E-03 -1.218961985E-03 7.176020973E+04 7.641856900E+01 1.162779178E+00
 -7.198236563E-03 -9.637798833E-04 7.213056041E+04 7.082019089E+01 1.187590110E+00
 -5.059725841E-03 -7.362811202E-04 7.259801999E+04 6.354728090E+01 1.325044782E+00
 -3.157854641E-03 -5.340122412E-04 7.311745357E+04 5.270881439E+01 1.359643816E+00
 -1.471548952E-03 -3.547168286E-04 7.371079389E+04 4.079183953E+01 2.025608350E+00
 1.856476775E-05 -1.963187265E-04 7.405209757E+04 3.571380134E+01 2.820233578E+00
 -4.916318661E+00 -1.667794339E-01 6.969585871E+04 1.017581853E+02 1.869278806E-03
 -4.541379489E+00 -1.441776136E-01 6.969589235E+04 1.017578199E+02 2.945883002E-03
 -4.194097421E+00 -1.232416044E-01 6.969595636E+04 1.017571115E+02 5.423030519E-03
 -3.872486337E+00 -1.038518041E-01 6.969601579E+04 1.017564008E+02 8.361511590E-03
 -3.574699952E+00 -8.589703267E-02 6.969608563E+04 1.017555666E+02 1.153771747E-02
 -3.297381854E+00 -7.784443270E-02 6.969618102E+04 1.017544994E+02 1.491401377E-02
 -3.040366590E+00 -7.192793033E-02 6.969630016E+04 1.017531920E+02 1.850252590E-02
 -2.802520542E+00 -6.645141575E-02 6.969644049E+04 1.017516559E+02 2.232767344E-02
 -2.582456230E+00 -6.138306582E-02 6.969660581E+04 1.017498491E+02 2.641606045E-02
 -2.378884436E+00 -5.669331028E-02 6.969680029E+04 1.017477280E+02 3.079914644E-02
 -2.190607367E+00 -5.235467478E-02 6.969702780E+04 1.017452497E+02 3.551050101E-02
 -2.016512274E+00 -4.834163467E-02 6.969729318E+04 1.017423605E+02 4.058530671E-02
 -1.855565519E+00 -4.463047908E-02 6.969760229E+04 1.017389969E+02 4.606164217E-02
 -1.706807044E+00 -4.119918428E-02 6.969796188E+04 1.017350855E+02 5.198090552E-02
 -1.569345229E+00 -3.802729593E-02 6.969837975E+04 1.017305407E+02 5.838647494E-02
 -1.442352099E+00 -3.509581942E-02 6.969886510E+04 1.017252627E+02 6.532410594E-02
 -1.325058861E+00 -3.238711788E-02 6.969942865E+04 1.017191346E+02 7.284317627E-02
 -1.216751756E+00 -2.988481722E-02 6.970008293E+04 1.017120199E+02 8.099607126E-02
 -1.116768190E+00 -2.757371779E-02 6.970084256E+04 1.017037595E+02 8.983825427E-02
 -1.024493137E+00 -2.543971217E-02 6.970172457E+04 1.016941674E+02 9.942856347E-02
 -9.393557945E-01 -2.346970864E-02 6.970274888E+04 1.016830269E+02 1.098292242E-01
 -8.608264616E-01 -2.165155997E-02 6.970393866E+04 1.016700852E+02 1.211058670E-01
 -7.884136424E-01 -1.997399712E-02 6.970532091E+04 1.016550477E+02 1.333275901E-01
 -7.216613463E-01 -1.842656754E-02 6.970692707E+04 1.016375714E+02 1.465669636E-01
 -6.601465777E-01 -1.699957775E-02 6.970879366E+04 1.016172575E+02 1.608999639E-01
 -6.034769989E-01 -1.568403980E-02 6.971096315E+04 1.015936419E+02 1.764058652E-01
 -5.512887571E-01 -1.447162145E-02 6.971348480E+04 1.015661859E+02 1.931670514E-01
 -5.032444625E-01 -1.335459975E-02 6.971641572E+04 1.015342645E+02 2.112687586E-01
 -4.590313071E-01 -1.232581776E-02 6.971982201E+04 1.014971533E+02 2.307986098E-01
 -4.183593153E-01 -1.137864424E-02 6.972378013E+04 1.014540134E+02 2.518464713E-01
 -3.809597168E-01 -1.050693599E-02 6.972837835E+04 1.014038750E+02 2.745033445E-01
 -3.465834334E-01 -9.705002785E-03 6.973371851E+04 1.013456171E+02 2.988613970E-01
 -3.149996718E-01 -8.967574622E-03 6.973991792E+04 1.012779461E+02 3.250122822E-01
 -2.859946147E-01 -8.289771183E-03 6.974711149E+04 1.011993702E+02 3.530467542E-01
 -2.593702048E-01 -7.667073322E-03 6.975545429E+04 1.011081707E+02 3.830531570E-01
 -2.349430132E-01 -7.095296481E-03 6.976512427E+04 1.010023687E+02 4.151149659E-01
 -2.125431880E-01 -6.570565907E-03 6.977632547E+04 1.008796865E+02 4.493099513E-01
 -1.920134770E-01 -6.089293564E-03 6.978929171E+04 1.007375028E+02 4.857059506E-01
 -1.732083192E-01 -5.648156651E-03 6.980429072E+04 1.005728006E+02 5.243585006E-01
 -1.559930004E-01 -5.244077654E-03 6.982162910E+04 1.003821053E+02 5.653057877E-01
 -1.402428686E-01 -4.874205836E-03 6.984165809E+04 1.001614088E+02 6.085633508E-01
 -1.258426050E-01 -4.535900113E-03 6.986478015E+04 9.990608269E+01 6.541094494E-01
 -1.126855466E-01 -4.226713237E-03 6.989145645E+04 9.961077558E+01 7.018818363E-01
 -1.006730566E-01 -3.944377218E-03 6.992221739E+04 9.926926673E+01 7.517598755E-01
 -8.971394015E-02 -3.686789930E-03 6.995767577E+04 9.887428747E+01 8.035325818E-01
 -7.972390130E-02 -3.452002804E-03 6.999854023E+04 9.841731497E+01 8.568769395E-01
 -7.062503847E-02 -3.238209568E-03 7.004563340E+04 9.788830807E+01 9.112978577E-01
 -6.234537627E-02 -3.043735930E-03 7.009991613E+04 9.727530015E+01 9.660779854E-01
 -5.481843061E-02 -2.867030134E-03 7.016252000E+04 9.656397938E+01 1.020130381E+00
 -4.798280492E-02 -2.706654295E-03 7.023477583E+04 9.573687966E+01 1.071994777E+00
 -4.178181531E-02 -2.561276463E-03 7.031825097E+04 9.477349211E+01 1.120500899E+00
 -3.616731275E-02 -2.393471413E-03 7.041470797E+04 9.364863460E+01 1.175955259E+00
 -3.110380985E-02 -2.077295823E-03 7.052639627E+04 9.233040252E+01 1.252644144E+00
 -2.652777786E-02 -1.791670333E-03 7.065625502E+04 9.077469873E+01 1.345349824E+00
 -2.239831633E-02 -1.534026343E-03 7.080810494E+04 8.892545363E+01 1.447247210E+00
 -1.867771753E-02 -1.301994065E-03 7.098650051E+04 8.670093228E+01 1.559685802E+00
 -1.533122812E-02 -1.093388206E-03 7.119812589E+04 8.400268125E+01 1.688298760E+00
 -1.232682802E-02 -9.061946082E-04 7.145028252E+04 8.064560065E+01 1.830488389E+00
 -9.635025392E-03 -7.385577938E-04 7.175721545E+04 7.644255829E+01 2.006939511E+00
 -7.228666460E-03 -5.887693266E-04 7.212752904E+04 7.084409506E+01 2.186356950E+00
 -5.082759229E-03 -4.552569386E-04 7.259426386E+04 6.357378367E+01 2.481225833E+00
 -3.174310012E-03 -3.365742943E-04 7.311352130E+04 5.277089741E+01 2.605210759E+00
 -1.482171927E-03 -2.313911798E-04 7.370567646E+04 4.084328143E+01 3.550121617E+00
 1.309555987E-05 -1.384829409E-04 7.404497890E+04 3.572162423E+01 4.590679414E+00
 -4.919121367E+00 4.110405248E-02 6.969572488E+04 1.017587096E+02 2.071142468E-03
 -4.543635013E+00 4.550070269E-02 6.969575241E+04 1.017584243E+02 3.172667315E-03
 -4.195846142E+00 4.957442534E-02 6.969580541E+04 1.017578703E+02 5.704345040E-03
 -3.873765730E+00 5.334838635E-02 6.969585594E+04 1.017573040E+02 8.703307202E-03
 -3.575544798E+00 5.684412293E-02 6.969591690E+04 1.017566122E+02 1.194559714E-02
 -3.298116271E+00 5.342736256E-02 6.969600125E+04 1.017556988E+02 1.540058997E-02
 -3.041048339E+00 4.912831635E-02 6.969610764E+04 1.017545566E+02 1.908272889E-02
 -2.803153560E+00 4.515119934E-02 6.969623443E+04 1.017531906E+02 2.301498487E-02
 -2.583044168E+00 4.147268655E-02 6.969638527E+04 1.017515616E+02 2.722535876E-02
 -2.379430682E+00 3.807110591E-02 6.969656410E+04 1.017496283E+02 3.174764681E-02
 -2.191115060E+00 3.492632315E-02 6.969677471E+04 1.017473488E+02 3.661838515E-02
 -2.016984324E+00 3.201963459E-02 6.969702187E+04 1.017446713E+02 4.187638831E-02
 -1.856004625E+00 2.933366715E-02 6.969731127E+04 1.017415343E+02 4.756310679E-02
 -1.707215706E+00 2.685228525E-02 6.969764955E+04 1.017378658E+02 5.372350124E-02
 -1.569725765E+00 2.456050409E-02 6.969804443E+04 1.017335816E+02 6.040700416E-02
 -1.442706656E+00 2.244440874E-02 6.969850496E+04 1.017285830E+02 6.766584247E-02
 -1.325389428E+00 2.049107899E-02 6.969904173E+04 1.017227550E+02 7.555533811E-02
 -1.217060174E+00 1.868851912E-02 6.969966712E+04 1.017159625E+02 8.413594692E-02
 -1.117056166E+00 1.702559272E-02 6.970039564E+04 1.017080479E+02 9.347253216E-02
 -1.024762252E+00 1.549196186E-02 6.970124419E+04 1.016988268E+02 1.036344120E-01
 -9.396075101E-01 1.407803052E-02 6.970223254E+04 1.016880840E+02 1.146959022E-01
 -8.610621320E-01 1.277489198E-02 6.970338375E+04 1.016755680E+02 1.267366080E-01
 -7.886345206E-01 1.157427978E-02 6.970472467E+04 1.016609860E+02 1.398416333E-01
 -7.218685920E-01 1.046852223E-02 6.970628660E+04 1.016439963E+02 1.541018395E-01
 -6.603412635E-01 9.450500019E-03 6.970810595E+04 1.016242014E+02 1.696140836E-01
 -6.036601172E-01 8.513606860E-03 6.971022507E+04 1.016011386E+02 1.864814106E-01
 -5.514612255E-01 7.651712940E-03 6.971269308E+04 1.015742705E+02 2.048132098E-01
 -5.034071296E-01 6.859130974E-03 6.971556700E+04 1.015429731E+02 2.247253213E-01
 -4.591849571E-01 6.130584718E-03 6.971891283E+04 1.015065229E+02 2.463400402E-01
 -4.185046732E-01 5.461179773E-03 6.972280694E+04 1.014640820E+02 2.697861749E-01
 -3.810974525E-01 4.846376529E-03 6.972733753E+04 1.014146809E+02 2.951987304E-01
 -3.467141657E-01 4.281965108E-03 6.973260636E+04 1.013571995E+02 3.227190402E-01
 -3.151239720E-01 3.764042178E-03 6.973873069E+04 1.012903443E+02 3.524937654E-01
 -2.861130105E-01 3.288989486E-03 6.974584542E+04 1.012126234E+02 3.846759113E-01
 -2.594831832E-01 2.853454010E-03 6.975410557E+04 1.011223179E+02 4.194226807E-01
 -2.350510235E-01 2.454329588E-03 6.976368907E+04 1.010174488E+02 4.568937565E-01
 -2.126466446E-01 2.088739906E-03 6.977479998E+04 1.008957372E+02 4.972533796E-01
 -1.921127621E-01 1.754022736E-03 6.978767214E+04 1.007545610E+02 5.406654393E-01
 -1.733037851E-01 1.447715309E-03 6.980257327E+04 1.005909025E+02 5.872914983E-01
 -1.560849716E-01 1.167540702E-03 6.981980999E+04 1.004012847E+02 6.372892984E-01
 -1.403316441E-01 9.113951648E-04 6.983973360E+04 1.001816990E+02 6.908109008E-01
 -1.259284600E-01 6.773362600E-04 6.986274658E+04 9.992751232E+01 7.479885513E-01
 -1.127687343E-01 4.635717576E-04 6.988931035E+04 9.963336788E+01 8.089337684E-01
 -1.007538101E-01 2.684491932E-04 6.991995564E+04 9.929304402E+01 8.737261683E-01
 -8.979247370E-02 9.044603145E-05 6.995529535E+04 9.889926739E+01 9.423889700E-01
 -7.980041181E-02 -7.183961917E-05 6.999603854E+04 9.844350482E+01 1.014875940E+00
 -7.069970688E-02 -2.196977865E-04 7.004300890E+04 9.791570219E+01 1.091023130E+00
 -6.241836878E-02 -3.543149380E-04 7.009716836E+04 9.730387082E+01 1.170516320E+00
 -5.488989982E-02 -4.767818176E-04 7.015965087E+04 9.659367764E+01 1.252764457E+00
 -4.805289087E-02 -5.881008342E-04 7.023178905E+04 9.576759364E+01 1.336925288E+00
 -4.185064650E-02 -6.891930230E-04 7.031515351E+04 9.480514212E+01 1.422422324E+00
 -3.623365312E-02 -7.488243744E-04 7.041148352E+04 9.368133078E+01 1.519159936E+00
 -3.116163160E-02 -6.547262712E-04 7.052298171E+04 9.236473283E+01 1.640755890E+00
 -2.657790098E-02 -5.697982360E-04 7.065259602E+04 9.081123979E+01 1.783739001E+00
 -2.244149203E-02 -4.932655881E-04 7.080416809E+04 8.896439287E+01 1.942961245E+00
 -1.871463358E-02 -4.244124227E-04 7.098224874E+04 8.674261424E+01 2.122474250E+00
 -1.536251385E-02 -3.625777413E-04 7.119348968E+04 8.404756352E+01 2.327787613E+00
 -1.235305891E-02 -3.071517930E-04 7.144520926E+04 8.069424662E+01 2.565466800E+00
 -9.656727342E-03 -2.575726074E-04 7.175156630E+04 7.649587449E+01 2.848297911E+00
 -7.246319709E-03 -2.133227016E-04 7.212125788E+04 7.090397716E+01 3.182030484E+00
 -5.096801990E-03 -1.739259381E-04 7.258726528E+04 6.363202375E+01 3.624158811E+00
 -3.185141834E-03 -1.389444650E-04 7.310667628E+04 5.285021579E+01 3.887845165E+00
 -1.490156796E-03 -1.079755261E-04 7.369531104E+04 4.051741944E+01 5.071772068E+00
 7.626351982E-06 -8.064715534E-05 7.403047647E+04 3.496390595E+01 6.255507978E+00
 -4.913313371E+00 2.489252871E-01 6.969558844E+04 1.017592502E+02 2.235714641E-03
 -4.537939917E+00 2.351215364E-01 6.969560985E+04 1.017590465E+02 3.359840307E-03
 -4.190255632E+00 2.223373911E-01 6.969565156E+04 1.017586517E+02 5.943048577E-03
 -3.868272090E+00 2.104996087E-01 6.969569287E+04 1.017582343E+02 9.002859616E-03
 -3.570140863E+00 1.995401080E-01 6.969574479E+04 1.017576878E+02 1.231372705E-02
 -3.293087182E+00 1.846567420E-01 6.969581778E+04 1.017569324E+02 1.584920003E-02
 -3.036415797E+00 1.701454171E-01 6.969591096E+04 1.017559609E+02 1.962467869E-02
 -2.798888000E+00 1.567176957E-01 6.969602370E+04 1.017547716E+02 2.366219924E-02
 -2.579118162E+00 1.442951223E-01 6.969615946E+04 1.017533278E+02 2.799167103E-02
 -2.375818789E+00 1.328047987E-01 6.969632194E+04 1.017515910E+02 3.264979509E-02
 -2.187793688E+00 1.221789971E-01 6.969651486E+04 1.017495201E+02 3.767562912E-02
 -2.013931598E+00 1.123547995E-01 6.969674286E+04 1.017470650E+02 4.311120333E-02
 -1.853200259E+00 1.032737619E-01 6.969701150E+04 1.017441660E+02 4.900268711E-02
 -1.704640900E+00 9.488160175E-02 6.969732722E+04 1.017407535E+02 5.539927036E-02
 -1.567363091E+00 8.712790628E-02 6.969769763E+04 1.017367459E+02 6.235419045E-02
 -1.440539963E+00 7.996586162E-02 6.969813165E+04 1.017320454E+02 6.992678890E-02
 -1.323403752E+00 7.335200021E-02 6.969863970E+04 1.017265386E+02 7.818006890E-02
 -1.215241652E+00 6.724596565E-02 6.969923399E+04 1.017200927E+02 8.718115861E-02
 -1.115391955E+00 6.161029392E-02 6.969992882E+04 1.017125520E+02 9.700419132E-02
 -1.023240458E+00 5.641020959E-02 6.970074095E+04 1.017037341E+02 1.077294079E-01
 -9.382171216E-01 5.161343621E-02 6.970168995E+04 1.016934258E+02 1.194431828E-01
 -8.597929529E-01 4.719001984E-02 6.970279869E+04 1.016813780E+02 1.322389398E-01
 -7.874771136E-01 4.311216487E-02 6.970409382E+04 1.016672999E+02 1.462178054E-01
 -7.208142229E-01 3.935408118E-02 6.970560644E+04 1.016508520E+02 1.614889509E-01
 -6.593818507E-01 3.589184205E-02 6.970737275E+04 1.016316391E+02 1.781700658E-01
 -6.027881845E-01 3.270325196E-02 6.970943488E+04 1.016092009E+02 1.963879225E-01
 -5.506698581E-01 2.976772366E-02 6.971184177E+04 1.015830019E+02 2.162788832E-01
 -5.026899329E-01 2.706616391E-02 6.971465019E+04 1.015524206E+02 2.379893414E-01
 -4.585360195E-01 2.458086721E-02 6.971792597E+04 1.015167356E+02 2.616761303E-01
 -4.179185303E-01 2.229541715E-02 6.972174524E+04 1.014751109E+02 2.875069454E-01
 -3.805690545E-01 2.019459463E-02 6.972619603E+04 1.014265792E+02 3.156606213E-01
 -3.462388472E-01 1.826429274E-02 6.973137989E+04 1.013700221E+02 3.463275047E-01
 -3.146974236E-01 1.649143762E-02 6.973741386E+04 1.013041477E+02 3.797094251E-01
 -2.857312528E-01 1.486391503E-02 6.974443268E+04 1.012274662E+02 4.160203641E-01
 -2.591425421E-01 1.337050214E-02 6.975259116E+04 1.011382601E+02 4.554857393E-01