TITLE     = "fluent22.1.0  build-id: 10213"
VARIABLES = "X"
"Y"
"Pressure"
"X Velocity"
"Y Velocity"
DATASETAUXDATA Common.DensityVar="23"
DATASETAUXDATA Common.PressureVar="3"
DATASETAUXDATA Common.TemperatureVar="12"
DATASETAUXDATA Common.TurbulentDynamicViscosityVar="17"
DATASETAUXDATA Common.UVar="5"
DATASETAUXDATA Common.VectorVarsAreVelocity="TRUE"
DATASETAUXDATA Common.ViscosityVar="25"
DATASETAUXDATA Common.VVar="7"
ZONE T="fluid"
 STRANDID=1, SOLUTIONTIME=0.425
 Nodes=10240, Elements=10080, ZONETYPE=FEQuadrilateral
 DATAPACKING=POINT
 DT=(DOUBLE DOUBLE DOUBLE DOUBLE DOUBLE )
 -4.856290020E+00 -7.872354469E-01 6.969658825E+04 1.017553720E+02 2.299561330E-03
 -4.486950311E+00 -7.102814597E-01 6.969664894E+04 1.017546013E+02 4.031736491E-03
 -4.884823481E+00 -5.813004056E-01 6.969637573E+04 1.017561747E+02 2.655577359E-03
 -4.512964080E+00 -5.224020902E-01 6.969642708E+04 1.017555313E+02 4.417556397E-03
 -4.144854586E+00 -6.390016711E-01 6.969675962E+04 1.017531161E+02 8.046242505E-03
 -4.168534543E+00 -4.678461547E-01 6.969652166E+04 1.017542886E+02 8.489506933E-03
 -3.828046396E+00 -5.729886750E-01 6.969685468E+04 1.017516744E+02 1.284231757E-02
 -3.849565071E+00 -4.173208172E-01 6.969660397E+04 1.017530754E+02 1.334301080E-02
 -3.534707038E+00 -5.118637219E-01 6.969696155E+04 1.017501155E+02 1.802639564E-02
 -3.554224552E+00 -3.705362381E-01 6.969669761E+04 1.017517473E+02 1.859544631E-02
 -3.260629360E+00 -4.695984231E-01 6.969710675E+04 1.017482647E+02 2.350639704E-02
 -3.278586618E+00 -3.396282180E-01 6.969682690E+04 1.017501389E+02 2.416574055E-02
 -3.006465526E+00 -4.332111430E-01 6.969728546E+04 1.017461100E+02 2.929490936E-02
 -3.023027731E+00 -3.133548761E-01 6.969698780E+04 1.017482373E+02 3.006554563E-02
 -2.771258183E+00 -3.995357750E-01 6.969748924E+04 1.017437034E+02 3.543992490E-02
 -2.786529393E+00 -2.890391128E-01 6.969717259E+04 1.017460920E+02 3.633710625E-02
 -2.553635249E+00 -3.683760662E-01 6.969772267E+04 1.017409925E+02 4.197742967E-02
 -2.567711989E+00 -2.665392737E-01 6.969738560E+04 1.017436528E+02 4.301742660E-02
 -2.352321816E+00 -3.395496612E-01 6.969799086E+04 1.017379221E+02 4.894607350E-02
 -2.365293613E+00 -2.457237355E-01 6.969763187E+04 1.017408661E+02 5.014779553E-02
 -2.166133386E+00 -3.128871343E-01 6.969829785E+04 1.017344444E+02 5.638846970E-02
 -2.178083264E+00 -2.264702071E-01 6.969791531E+04 1.017376857E+02 5.777366349E-02
 -1.993969560E+00 -2.882310872E-01 6.969864896E+04 1.017304994E+02 6.434982155E-02
 -2.004974501E+00 -2.086650783E-01 6.969824109E+04 1.017340533E+02 6.594337692E-02
 -1.834808170E+00 -2.654353104E-01 6.969905057E+04 1.017260164E+02 7.287795509E-02
 -1.844939546E+00 -1.922028145E-01 6.969861547E+04 1.017298996E+02 7.470870646E-02
 -1.687699815E+00 -2.443640011E-01 6.969950986E+04 1.017209157E+02 8.202300413E-02
 -1.697023787E+00 -1.769853928E-01 6.969904551E+04 1.017251468E+02 8.412445395E-02
 -1.551762771E+00 -2.248910363E-01 6.970003517E+04 1.017151056E+02 9.183808201E-02
 -1.560340657E+00 -1.629217766E-01 6.969953941E+04 1.017197051E+02 9.424837836E-02
 -1.426178250E+00 -2.068992948E-01 6.970063614E+04 1.017084795E+02 1.023794190E-01
 -1.434066875E+00 -1.499274268E-01 6.970010672E+04 1.017134698E+02 1.051417324E-01
 -1.310185992E+00 -1.902800271E-01 6.970132393E+04 1.017009146E+02 1.137048299E-01
 -1.317438007E+00 -1.379238475E-01 6.970075855E+04 1.017063189E+02 1.168701398E-01
 -1.203080158E+00 -1.749322688E-01 6.970211150E+04 1.016922691E+02 1.258738714E-01
 -1.209744341E+00 -1.268381617E-01 6.970150776E+04 1.016981115E+02 1.295017593E-01
 -1.104205508E+00 -1.607622938E-01 6.970301389E+04 1.016823779E+02 1.389488199E-01
 -1.110327038E+00 -1.166027180E-01 6.970236929E+04 1.016886841E+02 1.431068522E-01
 -1.012953842E+00 -1.476831066E-01 6.970404861E+04 1.016710497E+02 1.529936875E-01
 -1.018574561E+00 -1.071547230E-01 6.970336054E+04 1.016778462E+02 1.577599140E-01
 -9.287606902E-01 -1.356139684E-01 6.970523591E+04 1.016580626E+02 1.680737086E-01
 -9.339193412E-01 -9.843590029E-02 6.970450176E+04 1.016653765E+02 1.735385053E-01
 -8.511022305E-01 -1.244799574E-01 6.970659934E+04 1.016431590E+02 1.842551469E-01
 -8.558346811E-01 -9.039217285E-02 6.970581644E+04 1.016510180E+02 1.905226406E-01
 -7.794924211E-01 -1.142115585E-01 6.970816622E+04 1.016260400E+02 2.016047312E-01
 -7.838318711E-01 -8.297336697E-02 6.970733191E+04 1.016344720E+02 2.087947936E-01
 -7.134803316E-01 -1.047442822E-01 6.970996828E+04 1.016063587E+02 2.201890049E-01
 -7.174575056E-01 -7.613293729E-02 6.970907987E+04 1.016153914E+02 2.284395908E-01
 -6.526476601E-01 -9.601830949E-02 6.971204228E+04 1.015837123E+02 2.400736417E-01
 -6.562909868E-01 -6.982771057E-02 6.971109714E+04 1.015933734E+02 2.495433151E-01
 -5.966064228E-01 -8.797816186E-02 6.971443087E+04 1.015576341E+02 2.613226127E-01
 -5.999422012E-01 -6.401764739E-02 6.971342641E+04 1.015679504E+02 2.721933667E-01
 -5.449968047E-01 -8.057239355E-02 6.971718341E+04 1.015275829E+02 2.839971920E-01
 -5.480493588E-01 -5.866562024E-02 6.971611714E+04 1.015385804E+02 2.964776158E-01
 -4.974851599E-01 -7.375330573E-02 6.972035706E+04 1.014929323E+02 3.081547557E-01
 -5.002769824E-01 -5.373720704E-02 6.971922659E+04 1.015046353E+02 3.224835811E-01
 -4.537621518E-01 -6.747668021E-02 6.972401787E+04 1.014529568E+02 3.338474319E-01
 -4.563140375E-01 -4.920049891E-02 6.972282099E+04 1.014653879E+02 3.502974702E-01
 -4.135410228E-01 -6.170153168E-02 6.972824219E+04 1.014068177E+02 3.611207201E-01
 -4.158721926E-01 -4.502592127E-02 6.972697687E+04 1.014199971E+02 3.800031960E-01
 -3.765559855E-01 -5.638987709E-02 6.973311811E+04 1.013535454E+02 3.900120067E-01
 -3.786842013E-01 -4.118606720E-02 6.973178254E+04 1.013674907E+02 4.116812698E-01
 -3.425607261E-01 -5.150652103E-02 6.973874719E+04 1.012920207E+02 4.205487575E-01
 -3.445023978E-01 -3.765554244E-02 6.973733983E+04 1.013067460E+02 4.454074092E-01
 -3.113270126E-01 -4.701885594E-02 6.974524637E+04 1.012209517E+02 4.527461988E-01
 -3.130972974E-01 -3.441082089E-02 6.974376600E+04 1.012364676E+02 4.812508975E-01
 -2.826434013E-01 -4.289667619E-02 6.975275021E+04 1.011388494E+02 4.866054974E-01
 -2.842562957E-01 -3.143011030E-02 6.975119590E+04 1.011551622E+02 5.192731591E-01
 -2.563140330E-01 -3.911200503E-02 6.976141322E+04 1.010439984E+02 5.221103503E-01
 -2.577824584E-01 -2.869322699E-02 6.975978448E+04 1.010611093E+02 5.595252960E-01
 -2.321575150E-01 -3.563893356E-02 6.977141282E+04 1.009344237E+02 5.592242690E-01
 -2.334933971E-01 -2.618147947E-02 6.976970956E+04 1.009523284E+02 6.020457173E-01
 -2.100058811E-01 -3.245347091E-02 6.978295244E+04 1.008078517E+02 5.978872404E-01
 -2.112202233E-01 -2.387755995E-02 6.978117508E+04 1.008265396E+02 6.468575384E-01
 -1.897036247E-01 -2.953340491E-02 6.979626521E+04 1.006616658E+02 6.380104485E-01
 -1.908065770E-01 -2.176544352E-02 6.979441469E+04 1.006811195E+02 6.939646738E-01
 -1.711068008E-01 -2.685817253E-02 6.981161818E+04 1.004928541E+02 6.794711104E-01
 -1.721077227E-01 -1.983029438E-02 6.980969605E+04 1.005130476E+02 7.433470813E-01
 -1.540821908E-01 -2.440873946E-02 6.982931717E+04 1.002979474E+02 7.221034692E-01
 -1.549897106E-01 -1.805837868E-02 6.982732571E+04 1.003188455E+02 7.949540067E-01
 -1.385065266E-01 -2.216748831E-02 6.984971246E+04 1.000729443E+02 7.656935731E-01
 -1.393285957E-01 -1.643698360E-02 6.984765483E+04 1.000944992E+02 8.487012633E-01
 -1.242657695E-01 -2.011811482E-02 6.987320535E+04 9.981322576E+01 8.099550809E-01
 -1.250097132E-01 -1.495434230E-02 6.987108589E+04 9.983537619E+01 9.044471657E-01
 -1.112544405E-01 -1.824553152E-02 6.990025559E+04 9.951345294E+01 8.545216580E-01
 -1.119270051E-01 -1.359956424E-02 6.989807997E+04 9.953612018E+01 9.619894966E-01
 -9.937499783E-02 -1.653577850E-02 6.993139174E+04 9.916742106E+01 8.989282224E-01
 -9.998239382E-02 -1.236257074E-02 6.992916736E+04 9.919050014E+01 1.021051236E+00
 -8.853725861E-02 -1.497594075E-02 6.996722413E+04 9.876788376E+01 9.425573244E-01
 -8.908520161E-02 -1.123403532E-02 6.996496088E+04 9.879123745E+01 1.081231811E+00
 -7.865786217E-02 -1.355407155E-02 7.000845842E+04 9.830634450E+01 9.845991212E-01
 -7.915161009E-02 -1.020532842E-02 7.000616878E+04 9.832980368E+01 1.141976700E+00
 -6.965977116E-02 -1.225912161E-02 7.005591137E+04 9.777281252E+01 1.023941943E+00
 -7.010415902E-02 -9.268466489E-03 7.005361262E+04 9.779615814E+01 1.202501900E+00
 -6.147180846E-02 -1.108087356E-02 7.011053339E+04 9.715544947E+01 1.059115810E+00
 -6.187128055E-02 -8.416064752E-03 7.010825169E+04 9.717833933E+01 1.261734148E+00
 -5.402822712E-02 -1.000988133E-02 7.017344328E+04 9.644007367E+01 1.088149964E+00
 -5.438686690E-02 -7.641293730E-03 7.017121432E+04 9.646205481E+01 1.318145992E+00
 -4.726831111E-02 -9.037413903E-03 7.024595861E+04 9.560944682E+01 1.108513503E+00
 -4.758986881E-02 -6.937838894E-03 7.024382594E+04 9.562988895E+01 1.369709202E+00
 -4.113600466E-02 -8.155403427E-03 7.032963444E+04 9.464303062E+01 1.118095291E+00
 -4.142392293E-02 -6.299863473E-03 7.032764522E+04 9.466138855E+01 1.414889802E+00
 -3.558778636E-02 -7.307928082E-03 7.042631190E+04 9.351463844E+01 1.129288584E+00
 -3.584387736E-02 -5.677587861E-03 7.042444181E+04 9.353112183E+01 1.465821743E+00
 -3.060307539E-02 -6.327914659E-03 7.053835190E+04 9.219117240E+01 1.159311611E+00
 -3.082409299E-02 -4.917655646E-03 7.053650369E+04 9.220667206E+01 1.539416059E+00
 -2.609825343E-02 -5.442425703E-03 7.066862847E+04 9.062884247E+01 1.199481031E+00
 -2.628757384E-02 -4.231058108E-03 7.066676267E+04 9.064387451E+01 1.628702355E+00
 -2.203305601E-02 -4.643521040E-03 7.082092511E+04 8.877262245E+01 1.239980135E+00
 -2.219377218E-02 -3.611633423E-03 7.081903191E+04 8.878677278E+01 1.725399033E+00
 -1.837036164E-02 -3.923877768E-03 7.099971869E+04 8.654041470E+01 1.277981744E+00
 -1.850530541E-02 -3.053698174E-03 7.099783157E+04 8.655357015E+01 1.828977251E+00
 -1.507595723E-02 -3.276744996E-03 7.121183890E+04 8.383360026E+01 1.321617306E+00
 -1.518771977E-02 -2.552012465E-03 7.120989622E+04 8.384492735E+01 1.948397385E+00
 -1.211832044E-02 -2.695901760E-03 7.146425087E+04 8.046809638E+01 1.351944724E+00
 -1.220927118E-02 -2.101747439E-03 7.146239237E+04 8.047758332E+01 2.071357590E+00
 -9.468417837E-03 -2.175617853E-03 7.177173834E+04 7.625194132E+01 1.412904366E+00
 -9.540722007E-03 -1.698455029E-03 7.176970552E+04 7.625736775E+01 2.240298058E+00
 -7.099517721E-03 -1.710617384E-03 7.214171508E+04 7.065361846E+01 1.394531633E+00
 -7.155152512E-03 -1.338039782E-03 7.214009307E+04 7.065484290E+01 2.366735133E+00
 -4.987016578E-03 -1.296044836E-03 7.260896154E+04 6.333877325E+01 1.585899856E+00
 -5.027786122E-03 -1.016732598E-03 7.260664832E+04 6.333112178E+01 2.715442514E+00
 -3.108278168E-03 -9.274333626E-04 7.312653845E+04 5.263790248E+01 1.300739477E+00
 -3.135827362E-03 -7.310661312E-04 7.312588555E+04 5.261585311E+01 2.558319889E+00
 -1.442484358E-03 -6.006749507E-04 7.371471661E+04 4.046557905E+01 2.760550327E+00
 -1.458311652E-03 -4.778515436E-04 7.370896615E+04 3.993034188E+01 4.192997959E+00
 2.950318352E-05 -3.119902977E-04 7.405321144E+04 3.494346601E+01 4.772600035E+00
 2.403397564E-05 -2.541545121E-04 7.403925734E+04 3.390106924E+01 6.319852624E+00
 -4.904860300E+00 -3.743658139E-01 6.969615851E+04 1.017570084E+02 2.977331132E-03
 -4.531132555E+00 -3.335998286E-01 6.969620098E+04 1.017564903E+02 4.766849608E-03
 -4.184972509E+00 -2.958387407E-01 6.969628009E+04 1.017554896E+02 8.891918983E-03
 -3.864400461E+00 -2.608668059E-01 6.969635020E+04 1.017545067E+02 1.379717302E-02
 -3.567576097E+00 -2.284834677E-01 6.969643114E+04 1.017534096E+02 1.910900429E-02
 -3.290856609E+00 -2.089898087E-01 6.969654448E+04 1.017520470E+02 2.476011555E-02
 -3.034345942E+00 -1.928825372E-01 6.969668707E+04 1.017504050E+02 3.076336691E-02
 -2.796966822E+00 -1.779746209E-01 6.969685234E+04 1.017485261E+02 3.715379566E-02
 -2.577334492E+00 -1.641792858E-01 6.969704438E+04 1.017463634E+02 4.396888261E-02
 -2.374162273E+00 -1.514159024E-01 6.969726802E+04 1.017438662E+02 5.125285026E-02
 -2.186254726E+00 -1.396095572E-01 6.969752711E+04 1.017409899E+02 5.905378037E-02
 -2.012501288E+00 -1.286906538E-01 6.969782664E+04 1.017376784E+02 6.742314817E-02
 -1.851870353E+00 -1.185945427E-01 6.969817271E+04 1.017338648E+02 7.641609533E-02
 -1.703403751E+00 -1.092611750E-01 6.969857227E+04 1.017294730E+02 8.609187803E-02
 -1.566211616E+00 -1.006347818E-01 6.969903337E+04 1.017244144E+02 9.651402609E-02
 -1.439467598E+00 -9.266357414E-02 6.969956538E+04 1.017185865E+02 1.077493736E-01
 -1.322404417E+00 -8.529946525E-02 6.970017928E+04 1.017118704E+02 1.198689481E-01
 -1.214309715E+00 -7.849781074E-02 6.970088785E+04 1.017041259E+02 1.329502496E-01
 -1.114522201E+00 -7.221716765E-02 6.970170593E+04 1.016951903E+02 1.470738764E-01
 -1.022428060E+00 -6.641906980E-02 6.970265075E+04 1.016848752E+02 1.623232117E-01
 -9.374576081E-01 -6.106781886E-02 6.970374243E+04 1.016729608E+02 1.787879681E-01
 -8.590821870E-01 -5.613028985E-02 6.970500440E+04 1.016591908E+02 1.965626108E-01
 -7.868112666E-01 -5.157575010E-02 6.970646387E+04 1.016432677E+02 2.157455336E-01
 -7.201897528E-01 -4.737569081E-02 6.970815250E+04 1.016248452E+02 2.364394765E-01
 -6.587954809E-01 -4.350367024E-02 6.971010702E+04 1.016035211E+02 2.587515937E-01
 -6.022368848E-01 -3.993516771E-02 6.971237010E+04 1.015788283E+02 2.827930715E-01
 -5.501508269E-01 -3.664744771E-02 6.971499117E+04 1.015502248E+02 3.086787566E-01
 -5.022005806E-01 -3.361943339E-02 6.971802751E+04 1.015170824E+02 3.365267641E-01
 -4.580739530E-01 -3.083158871E-02 6.972154538E+04 1.014786734E+02 3.664579471E-01
 -4.174815387E-01 -2.826580870E-02 6.972562137E+04 1.014341558E+02 3.985953133E-01
 -3.801550961E-01 -2.590531726E-02 6.973034386E+04 1.013825562E+02 4.330633326E-01
 -3.458460368E-01 -2.373457193E-02 6.973581480E+04 1.013227504E+02 4.699870651E-01
 -3.143240216E-01 -2.173917512E-02 6.974215156E+04 1.012534411E+02 5.094912151E-01
 -2.853756539E-01 -1.990579149E-02 6.974948919E+04 1.011731325E+02 5.516990720E-01
 -2.588032662E-01 -1.822207093E-02 6.975798280E+04 1.010801016E+02 5.967310723E-01
 -2.344237905E-01 -1.667657677E-02 6.976781045E+04 1.009723644E+02 6.447030487E-01
 -2.120677093E-01 -1.525871903E-02 6.977917630E+04 1.008476372E+02 6.957247833E-01
 -1.915780800E-01 -1.395869225E-02 6.979231430E+04 1.007032926E+02 7.498968098E-01
 -1.728096281E-01 -1.276741761E-02 6.980749239E+04 1.005363051E+02 8.073064280E-01
 -1.556279046E-01 -1.167648928E-02 6.982501751E+04 1.003431903E+02 8.680245844E-01
 -1.399085027E-01 -1.067812451E-02 6.984524125E+04 1.001199271E+02 9.321027057E-01
 -1.255363305E-01 -9.765117399E-03 6.986856668E+04 9.986187406E+01 9.995553110E-01
 -1.124049347E-01 -8.930796103E-03 6.989545566E+04 9.956366304E+01 1.070358621E+00
 -1.004158724E-01 -8.168983245E-03 6.992643940E+04 9.921904780E+01 1.144437694E+00
 -8.947812810E-02 -7.473959361E-03 6.996213207E+04 9.882073131E+01 1.221629000E+00
 -7.950757104E-02 -6.840429185E-03 7.000324378E+04 9.836015845E+01 1.301656530E+00
 -7.042645246E-02 -6.263490562E-03 7.005059893E+04 9.782725185E+01 1.384077122E+00
 -6.216293799E-02 -5.738605836E-03 7.010516057E+04 9.720999125E+01 1.468234225E+00
 -5.465067360E-02 -5.261575473E-03 7.016806313E+04 9.649401544E+01 1.553104977E+00
 -4.782838276E-02 -4.828513730E-03 7.024063831E+04 9.566177480E+01 1.637270276E+00
 -4.163949224E-02 -4.435826241E-03 7.032445055E+04 9.469285270E+01 1.719768992E+00
 -3.603730691E-02 -4.039895591E-03 7.042122896E+04 9.356217802E+01 1.812165504E+00
 -3.099121860E-02 -3.501071824E-03 7.053318218E+04 9.223813877E+01 1.930801557E+00
 -2.643092750E-02 -3.014294620E-03 7.066326918E+04 9.067648978E+01 2.070645113E+00
 -2.231567346E-02 -2.575188626E-03 7.081534028E+04 8.882035649E+01 2.225169007E+00
 -1.860787804E-02 -2.179717425E-03 7.099394115E+04 8.658828785E+01 2.396268927E+00
 -1.527290701E-02 -1.824159049E-03 7.120572026E+04 8.388048402E+01 2.593485509E+00
 -1.227885002E-02 -1.505083150E-03 7.145799425E+04 8.051447820E+01 2.812194032E+00
 -9.596316280E-03 -1.219329710E-03 7.176480237E+04 7.629464259E+01 3.090528322E+00
 -7.198245052E-03 -9.639891704E-04 7.213511534E+04 7.069350180E+01 3.370008257E+00
 -5.059729977E-03 -7.363838759E-04 7.260068096E+04 6.336336059E+01 3.864913035E+00
 -3.157856173E-03 -5.340506262E-04 7.312178545E+04 5.262602924E+01 3.961046917E+00
 -1.471549237E-03 -3.547240344E-04 7.369981371E+04 3.951862229E+01 5.793060441E+00
 1.856476775E-05 -1.963187265E-04 7.402178875E+04 3.308083506E+01 7.911814473E+00
 -4.916318661E+00 -1.667794339E-01 6.969593915E+04 1.017578644E+02 3.233222533E-03
 -4.541380190E+00 -1.441957801E-01 6.969597268E+04 1.017574739E+02 5.047166604E-03
 -4.194098741E+00 -1.232758441E-01 6.969603591E+04 1.017567200E+02 9.224495762E-03
 -3.872488200E+00 -1.039001873E-01 6.969609334E+04 1.017559705E+02 1.418842956E-02
 -3.574702288E+00 -8.595778277E-02 6.969616137E+04 1.017551041E+02 1.956798803E-02
 -3.297384605E+00 -7.791597461E-02 6.969625847E+04 1.017539880E+02 2.530387115E-02
 -3.040369699E+00 -7.200876243E-02 6.969638228E+04 1.017526089E+02 3.140976718E-02
 -2.802523955E+00 -6.654014531E-02 6.969652753E+04 1.017510004E+02 3.791616050E-02
 -2.582459898E+00 -6.147841367E-02 6.969669805E+04 1.017491194E+02 4.486168163E-02
 -2.378888314E+00 -5.679410230E-02 6.969689840E+04 1.017469184E+02 5.229366514E-02
 -2.190611414E+00 -5.245983385E-02 6.969713233E+04 1.017443547E+02 6.026319578E-02
 -2.016516452E+00 -4.845017329E-02 6.969740469E+04 1.017413745E+02 6.882489092E-02
 -1.855569793E+00 -4.474149246E-02 6.969772139E+04 1.017379134E+02 7.803787091E-02
 -1.706811383E+00 -4.131184408E-02 6.969808923E+04 1.017338972E+02 8.796580742E-02
 -1.569349603E+00 -3.814084447E-02 6.969851609E+04 1.017292392E+02 9.867702434E-02
 -1.442356482E+00 -3.520956448E-02 6.969901119E+04 1.017238384E+02 1.102451668E-01
 -1.325063229E+00 -3.250042803E-02 6.969958529E+04 1.017175774E+02 1.227480170E-01
 -1.216756086E+00 -2.999711761E-02 6.970025098E+04 1.017103200E+02 1.362686637E-01
 -1.116772463E+00 -2.768448646E-02 6.970102303E+04 1.017019051E+02 1.508985398E-01
 -1.024497335E+00 -2.554847679E-02 6.970191853E+04 1.016921452E+02 1.667334625E-01
 -9.393599003E-01 -2.357604368E-02 6.970295736E+04 1.016808230E+02 1.838733962E-01
 -8.608304609E-01 -2.175508427E-02 6.970416276E+04 1.016676843E+02 2.024262328E-01
 -7.884175221E-01 -2.007437186E-02 6.970556184E+04 1.016524328E+02 2.225068620E-01
 -7.216650950E-01 -1.852349448E-02 6.970718610E+04 1.016347241E+02 2.442363519E-01
 -6.601501853E-01 -1.709279774E-02 6.970907215E+04 1.016141573E+02 2.677424920E-01
 -6.034804568E-01 -1.577333159E-02 6.971126251E+04 1.015902670E+02 2.931601464E-01
 -5.512920582E-01 -1.455680065E-02 6.971380650E+04 1.015625121E+02 3.206310801E-01
 -5.032476009E-01 -1.343551795E-02 6.971676131E+04 1.015302656E+02 3.503038713E-01
 -4.590342783E-01 -1.240236170E-02 6.972019312E+04 1.014928004E+02 3.823338442E-01
 -4.183621161E-01 -1.145073504E-02 6.972417844E+04 1.014492751E+02 4.168828875E-01
 -3.809623453E-01 -1.057452831E-02 6.972880562E+04 1.013987166E+02 4.541191899E-01
 -3.465858890E-01 -9.768083982E-03 6.973417658E+04 1.013400006E+02 4.942168874E-01
 -3.150019549E-01 -9.026163678E-03 6.974040867E+04 1.012718296E+02 5.373556898E-01
 -2.859967272E-01 -8.343917502E-03 6.974763694E+04 1.011927073E+02 5.837203909E-01
 -2.593721493E-01 -7.716855286E-03 6.975601651E+04 1.011009098E+02 6.335001779E-01
 -2.349447936E-01 -7.140819751E-03 6.976572547E+04 1.009944520E+02 6.868875968E-01
 -2.125448091E-01 -6.611961446E-03 6.977696801E+04 1.008710490E+02 7.440777586E-01
 -1.920149446E-01 -6.126715374E-03 6.978997813E+04 1.007280714E+02 8.052665177E-01
 -1.732096398E-01 -5.681779244E-03 6.980502381E+04 1.005624921E+02 8.706483963E-01
 -1.559941811E-01 -5.274093258E-03 6.982241201E+04 1.003708239E+02 9.404140665E-01
 -1.402439173E-01 -4.900821400E-03 6.984249442E+04 1.001490440E+02 1.014749746E+00
 -1.258435300E-01 -4.559334143E-03 6.986567413E+04 9.989250522E+01 1.093823478E+00
 -1.126863564E-01 -4.247192538E-03 6.989241321E+04 9.959583372E+01 1.177786655E+00
 -1.006737601E-01 -3.962133612E-03 6.992324317E+04 9.925278015E+01 1.266763156E+00
 -8.971454634E-02 -3.702057018E-03 6.995877847E+04 9.885603972E+01 1.360821614E+00
 -7.972441902E-02 -3.465012867E-03 6.999972984E+04 9.839704349E+01 1.459964726E+00
 -7.062547649E-02 -3.249190663E-03 7.004692292E+04 9.786569512E+01 1.564081985E+00
 -6.234574313E-02 -3.052909260E-03 7.010132239E+04 9.724994387E+01 1.672910330E+00
 -5.481873449E-02 -2.874607740E-03 7.016406582E+04 9.653539591E+01 1.785914487E+00
 -4.798305361E-02 -2.712837107E-03 7.023648768E+04 9.570441603E+01 1.902289919E+00
 -4.178201614E-02 -2.566252733E-03 7.032015542E+04 9.473664047E+01 2.021670922E+00
 -3.616747235E-02 -2.397415802E-03 7.041676734E+04 9.360722551E+01 2.155364861E+00
 -3.110393391E-02 -2.080368842E-03 7.052847301E+04 9.228513831E+01 2.318998645E+00
 -2.652787234E-02 -1.794016539E-03 7.065824602E+04 9.072614264E+01 2.509117923E+00
 -2.239838656E-02 -1.535775250E-03 7.080995899E+04 8.887277924E+01 2.721078841E+00
 -1.867776823E-02 -1.303260399E-03 7.098816461E+04 8.664388090E+01 2.959457074E+00
 -1.533126340E-02 -1.094272418E-03 7.119944484E+04 8.393953605E+01 3.234051357E+00
 -1.232685144E-02 -9.067836025E-04 7.145119347E+04 8.057780252E+01 3.548961880E+00
 -9.635039968E-03 -7.389258007E-04 7.175721449E+04 7.636272827E+01 3.935112276E+00
 -7.228674727E-03 -5.889788795E-04 7.212690846E+04 7.076758478E+01 4.371474476E+00
 -5.082763273E-03 -4.553598903E-04 7.259131787E+04 6.343471418E+01 5.008115221E+00
 -3.174311517E-03 -3.366127904E-04 7.311299433E+04 5.269207802E+01 5.413202184E+00
 -1.482172209E-03 -2.313984174E-04 7.368707523E+04 3.955249233E+01 7.402805267E+00
 1.309555987E-05 -1.384829409E-04 7.400343378E+04 3.308126747E+01 9.407297712E+00
 -4.919121367E+00 4.110405248E-02 6.969571726E+04 1.017587388E+02 3.443493061E-03
 -4.543635701E+00 4.548255774E-02 6.969574182E+04 1.017584764E+02 5.282105506E-03
 -4.195847437E+00 4.954022207E-02 6.969578889E+04 1.017579721E+02 9.513327216E-03
 -3.873767559E+00 5.330004778E-02 6.969583339E+04 1.017574585E+02 1.453680527E-02
 -3.575547092E+00 5.678342117E-02 6.969588846E+04 1.017568251E+02 1.998065417E-02
 -3.298118973E+00 5.335587381E-02 6.969596904E+04 1.017559607E+02 2.579354149E-02
 -3.041051391E+00 4.904754223E-02 6.969607354E+04 1.017548518E+02 3.199248074E-02
 -2.803156910E+00 4.506253209E-02 6.969619822E+04 1.017535214E+02 3.860572955E-02
 -2.583047768E+00 4.137740492E-02 6.969634663E+04 1.017519300E+02 4.567312928E-02
 -2.379434486E+00 3.797038365E-02 6.969652298E+04 1.017500344E+02 5.324471679E-02
 -2.191119028E+00 3.482123706E-02 6.969673093E+04 1.017477934E+02 6.137428225E-02
 -2.016988419E+00 3.191117186E-02 6.969697518E+04 1.017451555E+02 7.011950548E-02
 -1.856008812E+00 2.922273229E-02 6.969726143E+04 1.017420589E+02 7.954326899E-02
 -1.707219954E+00 2.673970637E-02 6.969759629E+04 1.017384319E+02 8.971377309E-02
 -1.569730045E+00 2.444703859E-02 6.969798745E+04 1.017341907E+02 1.007044321E-01
 -1.442710942E+00 2.233074861E-02 6.969844396E+04 1.017292365E+02 1.125944063E-01
 -1.325393696E+00 2.037785541E-02 6.969897639E+04 1.017234532E+02 1.254693715E-01
 -1.217064403E+00 1.857630670E-02 6.969959705E+04 1.017167062E+02 1.394203849E-01
 -1.117060335E+00 1.691491317E-02 6.970032046E+04 1.017088388E+02 1.545453625E-01
 -1.024766344E+00 1.538328725E-02 6.970116364E+04 1.016996664E+02 1.709517520E-01
 -9.396115086E-01 1.397178610E-02 6.970214625E+04 1.016889731E+02 1.887546372E-01
 -8.610660229E-01 1.267145859E-02 6.970329125E+04 1.016765074E+02 2.080746842E-01
 -7.886382914E-01 1.147399596E-02 6.970462552E+04 1.016619756E+02 2.290412464E-01
 -7.218722315E-01 1.037168592E-02 6.970618036E+04 1.016450353E+02 2.517943343E-01
 -6.603447620E-01 9.357370017E-03 6.970799216E+04 1.016252884E+02 2.764830306E-01
 -6.036634665E-01 8.424404076E-03 6.971010322E+04 1.016022714E+02 3.032658327E-01
 -5.514644191E-01 7.566621408E-03 6.971256267E+04 1.015754457E+02 3.323115411E-01
 -5.034101619E-01 6.778298754E-03 6.971542750E+04 1.015441862E+02 3.637994684E-01
 -4.591878241E-01 6.054124714E-03 6.971876368E+04 1.015077677E+02 3.979196166E-01
 -4.185073722E-01 5.389170518E-03 6.972264755E+04 1.014653507E+02 4.348729654E-01
 -3.810999821E-01 4.778862999E-03 6.972716730E+04 1.014159635E+02 4.748716901E-01
 -3.467165256E-01 4.218959628E-03 6.973242465E+04 1.013584834E+02 5.181393075E-01
 -3.151261632E-01 3.705525455E-03 6.973853683E+04 1.012916140E+02 5.649108500E-01
 -2.861150351E-01 3.234911836E-03 6.974563870E+04 1.012138602E+02 6.154329515E-01
 -2.594850444E-01 2.803736806E-03 6.975388525E+04 1.011234991E+02 6.699638248E-01
 -2.350527253E-01 2.408866963E-03 6.976345439E+04 1.010185462E+02 7.287730848E-01
 -2.126481923E-01 2.047400738E-03 6.977455017E+04 1.008967175E+02 7.921416638E-01
 -1.921141616E-01 1.716652911E-03 6.978740637E+04 1.007553840E+02 8.603612411E-01
 -1.733050430E-01 1.414140258E-03 6.980229078E+04 1.005915198E+02 9.337339198E-01
 -1.560860952E-01 1.137568192E-03 6.981951005E+04 1.004016378E+02 1.012570470E+00
 -1.403326412E-01 8.848182983E-04 6.983941560E+04 1.001817174E+02 1.097194308E+00
 -1.259293388E-01 6.539366329E-04 6.986241007E+04 9.992711098E+01 1.187927368E+00
 -1.127695033E-01 4.431227159E-04 6.988895516E+04 9.963244416E+01 1.285093669E+00
 -1.007544778E-01 2.507191125E-04 6.991958210E+04 9.929147137E+01 1.389020882E+00
 -8.979304885E-02 7.520154365E-05 6.995490461E+04 9.889689069E+01 1.500013730E+00
 -7.980090298E-02 -8.483052775E-05 6.999563268E+04 9.844013270E+01 1.618351284E+00
 -7.070012249E-02 -2.306628822E-04 7.004259164E+04 9.791109916E+01 1.744255312E+00
 -6.241871698E-02 -3.634751174E-04 7.009674560E+04 9.729773229E+01 1.877868052E+00
 -5.489018839E-02 -4.843488064E-04 7.015923222E+04 9.658563542E+01 2.019154930E+00
 -4.805312721E-02 -5.942752441E-04 7.023138533E+04 9.575713641E+01 2.167940274E+00
 -4.185083752E-02 -6.941627964E-04 7.031477344E+04 9.479190247E+01 2.324442987E+00
 -3.623380512E-02 -7.527639608E-04 7.041107536E+04 9.366525327E+01 2.499546329E+00
 -3.116174996E-02 -6.577961545E-04 7.052239996E+04 9.234655855E+01 2.708200723E+00
 -2.657799131E-02 -5.721425333E-04 7.065171989E+04 9.079163078E+01 2.948672861E+00
 -2.244155932E-02 -4.950134551E-04 7.080291594E+04 8.894278165E+01 3.218072884E+00
 -1.871468227E-02 -4.256782986E-04 7.098052756E+04 8.671902922E+01 3.523599852E+00
 -1.536254783E-02 -3.634618580E-04 7.119109818E+04 8.402067275E+01 3.875190744E+00
 -1.235308153E-02 -3.077408905E-04 7.144201151E+04 8.066601839E+01 4.285600746E+00
 -9.656741469E-03 -2.579408014E-04 7.174698786E+04 7.645942807E+01 4.778583977E+00
 -7.246327750E-03 -2.135324491E-04 7.211548138E+04 7.087510205E+01 5.368738457E+00
 -5.096805940E-03 -1.740290462E-04 7.257852378E+04 6.354413945E+01 6.154366030E+00
 -3.185143312E-03 -1.389830598E-04 7.309946220E+04 5.280561144E+01 6.853273570E+00
 -1.490157074E-03 -1.079827949E-04 7.366988019E+04 3.967850037E+01 8.979817412E+00
 7.626351982E-06 -8.064715534E-05 7.398254544E+04 3.321135707E+01 1.087430010E+01
 -4.913313371E+00 2.489252871E-01 6.969549283E+04 1.017596288E+02 3.591931028E-03
 -4.537940593E+00 2.351033847E-01 6.969550836E+04 1.017594964E+02 5.451789240E-03
 -4.190256905E+00 2.223031705E-01 6.969553896E+04 1.017592468E+02 9.732402107E-03
 -3.868273888E+00 2.104512399E-01 6.969557016E+04 1.017589739E+02 1.481612046E-02
 -3.570143119E+00 1.994793632E-01 6.969561212E+04 1.017585766E+02 2.032878257E-02
 -3.293089838E+00 1.845852058E-01 6.969567586E+04 1.017579684E+02 2.622217270E-02
 -3.036418797E+00 1.700645929E-01 6.969576059E+04 1.017571358E+02 3.251412683E-02
 -2.798891292E+00 1.566289763E-01 6.969586416E+04 1.017560900E+02 3.923178940E-02
 -2.579121697E+00 1.441997867E-01 6.969598987E+04 1.017547956E+02 4.641698336E-02
 -2.375822524E+00 1.327040209E-01 6.969614152E+04 1.017532136E+02 5.412262694E-02
 -2.187797583E+00 1.220738543E-01 6.969632269E+04 1.017513046E+02 6.240548896E-02
 -2.013935614E+00 1.122462791E-01 6.969653789E+04 1.017490198E+02 7.132661787E-02
 -1.853204365E+00 1.031627688E-01 6.969679261E+04 1.017462999E+02 8.095282711E-02
 -1.704645063E+00 9.476896418E-02 6.969709323E+04 1.017430761E+02 9.135672062E-02
 -1.567367282E+00 8.701438196E-02 6.969744724E+04 1.017392670E+02 1.026169809E-01
 -1.440544157E+00 7.985214278E-02 6.969786344E+04 1.017347768E+02 1.148187933E-01
 -1.323407926E+00 7.323871829E-02 6.969835222E+04 1.017294932E+02 1.280543431E-01
 -1.215245783E+00 6.713369553E-02 6.969892565E+04 1.017232828E+02 1.424237809E-01
 -1.115396025E+00 6.149955757E-02 6.969959793E+04 1.017159909E+02 1.580341078E-01
 -1.023244450E+00 5.630147935E-02 6.970038577E+04 1.017074367E+02 1.750010108E-01
 -9.382210183E-01 5.150713760E-02 6.970130865E+04 1.016974084E+02 1.934514181E-01
 -8.597967410E-01 4.708653401E-02 6.970238934E+04 1.016856581E+02 2.135233003E-01
 -7.874807807E-01 4.301183060E-02 6.970365437E+04 1.016718941E+02 2.353622646E-01
 -7.208177583E-01 3.925719668E-02 6.970513468E+04 1.016557778E+02 2.591240201E-01
 -6.593852453E-01 3.579866639E-02 6.970686640E+04 1.016369139E+02 2.849791558E-01
 -6.027914303E-01 3.261400630E-02 6.970889155E+04 1.016148420E+02 3.131104906E-01
 -5.506729489E-01 2.968259226E-02 6.971125894E+04 1.015890269E+02 3.437135440E-01
 -5.026928637E-01 2.698529502E-02 6.971402526E+04 1.015588465E+02 3.769981766E-01
 -4.585387868E-01 2.450437392E-02 6.971725618E+04 1.015235788E+02 4.131890649E-01
 -4.179211317E-01 2.222337811E-02 6.972102776E+04 1.014823873E+02 4.525261438E-01
 -3.805714890E-01 2.012705490E-02 6.972542787E+04 1.014343032E+02 4.952653440E-01
 -3.462411151E-01 1.820126469E-02 6.973055795E+04 1.013782066E+02 5.416792934E-01
 -3.146995263E-01 1.643290194E-02 6.973653489E+04 1.013128039E+02 5.920579963E-01
 -2.857331927E-01 1.480982195E-02 6.974349328E+04 1.012366027E+02 6.467094717E-01
 -2.591443228E-01 1.332077291E-02 6.975158777E+04 1.011478825E+02 7.059603846E-01