TITLE     = "fluent22.1.0  build-id: 10213"
VARIABLES = "X"
"Y"
"Pressure"
"X Velocity"
"Y Velocity"
DATASETAUXDATA Common.DensityVar="23"
DATASETAUXDATA Common.PressureVar="3"
DATASETAUXDATA Common.TemperatureVar="12"
DATASETAUXDATA Common.TurbulentDynamicViscosityVar="17"
DATASETAUXDATA Common.UVar="5"
DATASETAUXDATA Common.VectorVarsAreVelocity="TRUE"
DATASETAUXDATA Common.ViscosityVar="25"
DATASETAUXDATA Common.VVar="7"
ZONE T="fluid"
 STRANDID=1, SOLUTIONTIME=0.4275
 Nodes=10240, Elements=10080, ZONETYPE=FEQuadrilateral
 DATAPACKING=POINT
 DT=(DOUBLE DOUBLE DOUBLE DOUBLE DOUBLE )
 -4.856290020E+00 -7.872354469E-01 6.969660219E+04 1.017553204E+02 2.347765626E-03
 -4.486950347E+00 -7.102821963E-01 6.969666315E+04 1.017545428E+02 4.108723255E-03
 -4.884823481E+00 -5.813004056E-01 6.969638616E+04 1.017561360E+02 2.706457737E-03
 -4.512964115E+00 -5.224028223E-01 6.969643767E+04 1.017554877E+02 4.497246359E-03
 -4.144854654E+00 -6.390030583E-01 6.969677432E+04 1.017530440E+02 8.189726959E-03
 -4.168534609E+00 -4.678475337E-01 6.969653255E+04 1.017542353E+02 8.635701938E-03
 -3.828046491E+00 -5.729906339E-01 6.969686975E+04 1.017515893E+02 1.306523362E-02
 -3.849565165E+00 -4.173227650E-01 6.969661509E+04 1.017530129E+02 1.356857976E-02
 -3.534707157E+00 -5.118661798E-01 6.969697707E+04 1.017500178E+02 1.833570935E-02
 -3.554224669E+00 -3.705386827E-01 6.969670899E+04 1.017516760E+02 1.890737763E-02
 -3.260629501E+00 -4.696013154E-01 6.969712303E+04 1.017481531E+02 2.390785052E-02
 -3.278586756E+00 -3.396310958E-01 6.969683882E+04 1.017500577E+02 2.456993163E-02
 -3.006465685E+00 -4.332144093E-01 6.969730278E+04 1.017459828E+02 2.979441117E-02
 -3.023027887E+00 -3.133581267E-01 6.969700048E+04 1.017481447E+02 3.056805122E-02
 -2.771258357E+00 -3.995393593E-01 6.969750768E+04 1.017435603E+02 3.604400208E-02
 -2.786529564E+00 -2.890426803E-01 6.969718608E+04 1.017459878E+02 3.694447423E-02
 -2.553635436E+00 -3.683799170E-01 6.969774231E+04 1.017408328E+02 4.269316498E-02
 -2.567712173E+00 -2.665431069E-01 6.969739997E+04 1.017435366E+02 4.373675373E-02
 -2.352322014E+00 -3.395537315E-01 6.969801184E+04 1.017377450E+02 4.978117786E-02
 -2.365293808E+00 -2.457277875E-01 6.969764722E+04 1.017407372E+02 5.098688178E-02
 -2.166133593E+00 -3.128913807E-01 6.969832028E+04 1.017342489E+02 5.735140929E-02
 -2.178083467E+00 -2.264744345E-01 6.969793172E+04 1.017375432E+02 5.874101442E-02
 -1.993969773E+00 -2.882354701E-01 6.969867296E+04 1.017302842E+02 6.544977664E-02
 -2.004974711E+00 -2.086694416E-01 6.969825865E+04 1.017338966E+02 6.704822234E-02
 -1.834808389E+00 -2.654397934E-01 6.969907628E+04 1.017257803E+02 7.412509263E-02
 -1.844939761E+00 -1.922072775E-01 6.969863427E+04 1.017297278E+02 7.596112203E-02
 -1.687700038E+00 -2.443685511E-01 6.969953743E+04 1.017206574E+02 8.342848097E-02
 -1.697024005E+00 -1.769899222E-01 6.969906566E+04 1.017249587E+02 8.553560223E-02
 -1.551762996E+00 -2.248956226E-01 6.970006473E+04 1.017148236E+02 9.341374536E-02
 -1.560340877E+00 -1.629263419E-01 6.969956103E+04 1.017194997E+02 9.583041296E-02
 -1.426178475E+00 -2.069038897E-01 6.970066787E+04 1.017081723E+02 1.041384136E-01
 -1.434067095E+00 -1.499320005E-01 6.970012992E+04 1.017132458E+02 1.069077184E-01
 -1.310186217E+00 -1.902846052E-01 6.970135803E+04 1.017005802E+02 1.156616990E-01
 -1.317438227E+00 -1.379284041E-01 6.970078347E+04 1.017060751E+02 1.188345168E-01
 -1.203080382E+00 -1.749368069E-01 6.970214816E+04 1.016919054E+02 1.280442982E-01
 -1.209744559E+00 -1.268426782E-01 6.970153455E+04 1.016978461E+02 1.316803697E-01
 -1.104205729E+00 -1.607667710E-01 6.970305333E+04 1.016819828E+02 1.413499071E-01
 -1.110327254E+00 -1.166071734E-01 6.970239811E+04 1.016883956E+02 1.455168265E-01
 -1.012954060E+00 -1.476875037E-01 6.970409105E+04 1.016706209E+02 1.556441292E-01
 -1.018574774E+00 -1.071590983E-01 6.970339155E+04 1.016775329E+02 1.604199293E-01
 -9.287609035E-01 -1.356182683E-01 6.970528158E+04 1.016575975E+02 1.709938667E-01
 -9.339195493E-01 -9.844017844E-02 6.970453513E+04 1.016650365E+02 1.764689927E-01
 -8.511024387E-01 -1.244841446E-01 6.970664850E+04 1.016426550E+02 1.874671366E-01
 -8.558348841E-01 -9.039633849E-02 6.970585237E+04 1.016506492E+02 1.937458127E-01
 -7.794926236E-01 -1.142156193E-01 6.970821914E+04 1.016254941E+02 2.051325617E-01
 -7.838320683E-01 -8.297740646E-02 6.970737058E+04 1.016340723E+02 2.123346911E-01
 -7.134805277E-01 -1.047482045E-01 6.971002523E+04 1.016057678E+02 2.240587455E-01
 -7.174576965E-01 -7.613683859E-02 6.970912150E+04 1.016149584E+02 2.323222966E-01
 -6.526478493E-01 -9.602208274E-02 6.971210355E+04 1.015830732E+02 2.443135768E-01
 -6.562911708E-01 -6.983146322E-02 6.971114194E+04 1.015929046E+02 2.537971512E-01
 -5.966066047E-01 -8.798177700E-02 6.971449676E+04 1.015569433E+02 2.659633794E-01
 -5.999423779E-01 -6.402124244E-02 6.971347458E+04 1.015674433E+02 2.768490193E-01
 -5.449969788E-01 -8.057584303E-02 6.971725423E+04 1.015268369E+02 2.890719218E-01
 -5.480495278E-01 -5.866905021E-02 6.971616892E+04 1.015380322E+02 3.015682676E-01
 -4.974853259E-01 -7.375658342E-02 6.972043313E+04 1.014921271E+02 3.136992447E-01
 -5.002771434E-01 -5.374046589E-02 6.971928221E+04 1.015040430E+02 3.280450794E-01
 -4.537623094E-01 -6.747978141E-02 6.972409953E+04 1.014520883E+02 3.399003612E-01
 -4.563141902E-01 -4.920358201E-02 6.972288070E+04 1.014647484E+02 3.563685394E-01
 -4.135411718E-01 -6.170445306E-02 6.972832979E+04 1.014058815E+02 3.677238793E-01
 -4.158723368E-01 -4.502882537E-02 6.972704092E+04 1.014193070E+02 3.866256512E-01
 -3.765561257E-01 -5.639261667E-02 6.973321201E+04 1.013525369E+02 3.972104999E-01
 -3.786843369E-01 -4.118879040E-02 6.973185121E+04 1.013667464E+02 4.189002221E-01
 -3.425608575E-01 -5.150907817E-02 6.973884778E+04 1.012909349E+02 4.283911189E-01
 -3.445025247E-01 -3.765808415E-02 6.973741339E+04 1.013059436E+02 4.532714832E-01
 -3.113271351E-01 -4.702123129E-02 6.974535406E+04 1.012197833E+02 4.612847961E-01
 -3.130974157E-01 -3.441318182E-02 6.974384474E+04 1.012356030E+02 4.898125049E-01
 -2.826435149E-01 -4.289887163E-02 6.975286539E+04 1.011375929E+02 4.958968064E-01
 -2.842564053E-01 -3.143229235E-02 6.975128012E+04 1.011542309E+02 5.285887547E-01
 -2.563141379E-01 -3.911402362E-02 6.976153632E+04 1.010426481E+02 5.322149951E-01
 -2.577825595E-01 -2.869523327E-02 6.975987448E+04 1.010601068E+02 5.696555672E-01
 -2.321576113E-01 -3.564077950E-02 6.977154425E+04 1.009329733E+02 5.702074414E-01
 -2.334934898E-01 -2.618331418E-02 6.976980565E+04 1.009512498E+02 6.130560650E-01
 -2.100059690E-01 -3.245514942E-02 6.978309266E+04 1.008062947E+02 6.098190640E-01
 -2.112203079E-01 -2.387922831E-02 6.978127757E+04 1.008253795E+02 6.588180280E-01
 -1.897037044E-01 -2.953492218E-02 6.979641466E+04 1.006599954E+02 6.509664526E-01
 -1.908066536E-01 -2.176695170E-02 6.979452393E+04 1.006798721E+02 7.069510971E-01
 -1.711068727E-01 -2.685953559E-02 6.981177735E+04 1.004910625E+02 6.935325983E-01
 -1.721077918E-01 -1.983164938E-02 6.980981238E+04 1.005117068E+02 7.574410569E-01
 -1.540822552E-01 -2.440995608E-02 6.982948659E+04 1.002960259E+02 7.373584684E-01
 -1.549897724E-01 -1.805958823E-02 6.982744949E+04 1.003174041E+02 8.102435357E-01
 -1.385065838E-01 -2.216856688E-02 6.984989264E+04 1.000708843E+02 7.822360178E-01
 -1.393286506E-01 -1.643805604E-02 6.984778644E+04 1.000929502E+02 8.652802176E-01
 -1.242658201E-01 -2.011906420E-02 6.987339681E+04 9.981101796E+01 8.278889138E-01
 -1.250097617E-01 -1.495528642E-02 6.987122563E+04 9.983371169E+01 9.224198272E-01
 -1.112544848E-01 -1.824636092E-02 6.990045910E+04 9.951108356E+01 8.739607004E-01
 -1.119270475E-01 -1.360038919E-02 6.989822838E+04 9.953432797E+01 9.814700910E-01
 -9.937503632E-02 -1.653649737E-02 6.993160848E+04 9.916487218E+01 9.199930740E-01
 -9.998243073E-02 -1.236328589E-02 6.992932543E+04 9.918856480E+01 1.042160574E+00
 -8.853729177E-02 -1.497655858E-02 6.996745530E+04 9.876513759E+01 9.653800276E-01
 -8.908523341E-02 -1.123465008E-02 6.996512957E+04 9.878914376E+01 1.104102698E+00
 -7.865789047E-02 -1.355459781E-02 7.000870517E+04 9.830338233E+01 1.009325728E+00
 -7.915163724E-02 -1.020585219E-02 7.000634894E+04 9.832753570E+01 1.166756058E+00
 -6.965979508E-02 -1.225956558E-02 7.005617512E+04 9.776961164E+01 1.050734589E+00
 -7.010418197E-02 -9.268908459E-03 7.005380529E+04 9.779369648E+01 1.229352863E+00
 -6.147182847E-02 -1.108124426E-02 7.011081595E+04 9.715198103E+01 1.088154975E+00
 -6.187129976E-02 -8.416433867E-03 7.010845824E+04 9.717565901E+01 1.290838560E+00
 -5.402824366E-02 -1.001018739E-02 7.017374699E+04 9.643630327E+01 1.119638561E+00
 -5.438688278E-02 -7.641598554E-03 7.017143660E+04 9.645912566E+01 1.349708372E+00
 -4.726832461E-02 -9.037663493E-03 7.024628618E+04 9.560532936E+01 1.142679843E+00
 -4.758988179E-02 -6.938087541E-03 7.024406610E+04 9.562667107E+01 1.403960170E+00
 -4.113601553E-02 -8.155604209E-03 7.032998873E+04 9.463852838E+01 1.155201540E+00
 -4.142393339E-02 -6.300063543E-03 7.032790545E+04 9.465784897E+01 1.452093652E+00
 -3.558779498E-02 -7.308087125E-03 7.042669225E+04 9.350973312E+01 1.169639821E+00
 -3.584388565E-02 -5.677746385E-03 7.042472097E+04 9.352724534E+01 1.506282510E+00
 -3.060308206E-02 -6.328038390E-03 7.053875275E+04 9.218588602E+01 1.203271650E+00
 -3.082409941E-02 -4.917779048E-03 7.053679581E+04 9.220248375E+01 1.583495780E+00
 -2.609825848E-02 -5.442520031E-03 7.066904764E+04 9.062318237E+01 1.247490147E+00
 -2.628757872E-02 -4.231152244E-03 7.066706461E+04 9.063938741E+01 1.676842548E+00
 -2.203305974E-02 -4.643591251E-03 7.082136339E+04 8.876651265E+01 1.292554109E+00
 -2.219377580E-02 -3.611703534E-03 7.081934337E+04 8.878192041E+01 1.778120355E+00
 -1.837036432E-02 -3.923928529E-03 7.100017860E+04 8.653382001E+01 1.335774425E+00
 -1.850530801E-02 -3.053748894E-03 7.099815363E+04 8.654832473E+01 1.886939835E+00
 -1.507595909E-02 -3.276780386E-03 7.121231727E+04 8.382635378E+01 1.385409058E+00
 -1.518772157E-02 -2.552047848E-03 7.121022425E+04 8.383913349E+01 2.012383470E+00
 -1.211832166E-02 -2.695925296E-03 7.146475544E+04 8.046026113E+01 1.422779652E+00
 -1.220927237E-02 -2.101770986E-03 7.146273245E+04 8.047132009E+01 2.142459467E+00
 -9.468418592E-03 -2.175632535E-03 7.177225987E+04 7.624290288E+01 1.492251569E+00
 -9.540722744E-03 -1.698469726E-03 7.177004358E+04 7.624998722E+01 2.319763069E+00
 -7.099518145E-03 -1.710625729E-03 7.214229448E+04 7.064475222E+01 1.482855438E+00
 -7.155152928E-03 -1.338048142E-03 7.214049158E+04 7.064772526E+01 2.455949621E+00
 -4.987016784E-03 -1.296048927E-03 7.260957102E+04 6.332135499E+01 1.686200003E+00
 -5.027786324E-03 -1.016736699E-03 7.260707327E+04 6.331189635E+01 2.811803872E+00
 -3.108278244E-03 -9.274348880E-04 7.312733525E+04 5.261099513E+01 1.306218683E+00
 -3.135827436E-03 -7.310676618E-04 7.312749658E+04 5.257764251E+01 2.669988140E+00
 -1.442484372E-03 -6.006752363E-04 7.371164140E+04 3.992025207E+01 2.872450884E+00
 -1.458311666E-03 -4.778518305E-04 7.370685735E+04 3.948396435E+01 4.387915971E+00
 2.950318352E-05 -3.119902977E-04 7.404604603E+04 3.387945131E+01 5.093412480E+00
 2.403397564E-05 -2.541545121E-04 7.403219427E+04 3.305212925E+01 6.584570747E+00
 -4.904860300E+00 -3.743658139E-01 6.969616538E+04 1.017569828E+02 3.030336581E-03
 -4.531132590E+00 -3.336005573E-01 6.969620793E+04 1.017564618E+02 4.848661673E-03
 -4.184972574E+00 -2.958401137E-01 6.969628716E+04 1.017554552E+02 9.040178160E-03
 -3.864400553E+00 -2.608687456E-01 6.969635734E+04 1.017544669E+02 1.402467061E-02
 -3.567576212E+00 -2.284859028E-01 6.969643839E+04 1.017533647E+02 1.942272038E-02
 -3.290856744E+00 -2.089926759E-01 6.969655204E+04 1.017519961E+02 2.516608663E-02
 -3.034346095E+00 -1.928857764E-01 6.969669512E+04 1.017503470E+02 3.126779800E-02
 -2.796966990E+00 -1.779781763E-01 6.969686090E+04 1.017484608E+02 3.776327807E-02
 -2.577334673E+00 -1.641831063E-01 6.969705349E+04 1.017462905E+02 4.469053176E-02
 -2.374162464E+00 -1.514199411E-01 6.969727776E+04 1.017437853E+02 5.209450145E-02
 -2.186254925E+00 -1.396137708E-01 6.969753751E+04 1.017409005E+02 6.002394280E-02
 -2.012501493E+00 -1.286950029E-01 6.969783776E+04 1.017375802E+02 6.853107489E-02
 -1.851870563E+00 -1.185989909E-01 6.969818461E+04 1.017337569E+02 7.767200471E-02
 -1.703403965E+00 -1.092656894E-01 6.969858503E+04 1.017293549E+02 8.750679673E-02
 -1.566211832E+00 -1.006393319E-01 6.969904705E+04 1.017242854E+02 9.810014216E-02
 -1.439467814E+00 -9.266813229E-02 6.969958005E+04 1.017184455E+02 1.095199790E-01
 -1.322404632E+00 -8.530400615E-02 6.970019503E+04 1.017117168E+02 1.218383796E-01
 -1.214309929E+00 -7.850231139E-02 6.970090478E+04 1.017039586E+02 1.351341804E-01
 -1.114522413E+00 -7.222160714E-02 6.970172415E+04 1.016950081E+02 1.494895936E-01
 -1.022428267E+00 -6.642342921E-02 6.970267035E+04 1.016846770E+02 1.649896891E-01
 -9.374578113E-01 -6.107208115E-02 6.970376352E+04 1.016727454E+02 1.817255662E-01
 -8.590823851E-01 -5.613443972E-02 6.970502710E+04 1.016589569E+02 1.997934394E-01
 -7.868114589E-01 -5.157977397E-02 6.970648832E+04 1.016430137E+02 2.192936835E-01
 -7.201899387E-01 -4.737957672E-02 6.970817882E+04 1.016245696E+02 2.403311010E-01
 -6.587956600E-01 -4.350740779E-02 6.971013535E+04 1.016032223E+02 2.630150656E-01
 -6.022370566E-01 -3.993874800E-02 6.971240057E+04 1.015785044E+02 2.874591269E-01
 -5.501509911E-01 -3.665086334E-02 6.971502393E+04 1.015498740E+02 3.137806302E-01
 -5.022007369E-01 -3.362267837E-02 6.971806270E+04 1.015167027E+02 3.421003588E-01
 -4.580741010E-01 -3.083465846E-02 6.972158315E+04 1.014782625E+02 3.725420413E-01
 -4.174816784E-01 -2.826870004E-02 6.972566188E+04 1.014337114E+02 4.052317700E-01
 -3.801552273E-01 -2.590802835E-02 6.973038728E+04 1.013820758E+02 4.402973118E-01
 -3.458461595E-01 -2.373710221E-02 6.973586130E+04 1.013222311E+02 4.778672644E-01
 -3.143241357E-01 -2.174152533E-02 6.974220133E+04 1.012528800E+02 5.180701124E-01
 -2.853757596E-01 -1.990796359E-02 6.974954240E+04 1.011725263E+02 5.610332079E-01
 -2.588033636E-01 -1.822406802E-02 6.975803965E+04 1.010794470E+02 6.068812332E-01
 -2.344238797E-01 -1.667840307E-02 6.976787111E+04 1.009716576E+02 6.557347994E-01
 -2.120677906E-01 -1.526037978E-02 6.977924096E+04 1.008468744E+02 7.077080133E-01
 -1.915781537E-01 -1.396019359E-02 6.979238317E+04 1.007024690E+02 7.629075955E-01
 -1.728096945E-01 -1.276876653E-02 6.980756569E+04 1.005354161E+02 8.214269821E-01
 -1.556279639E-01 -1.167769348E-02 6.982509540E+04 1.003422304E+02 8.833430789E-01
 -1.399085554E-01 -1.067919228E-02 6.984532397E+04 1.001188907E+02 9.487140481E-01
 -1.255363770E-01 -9.766057507E-03 6.986865434E+04 9.986075514E+01 1.017563900E+00
 -1.124049754E-01 -8.931617642E-03 6.989554855E+04 9.956245171E+01 1.089877661E+00
 -1.004159078E-01 -8.169695517E-03 6.992653827E+04 9.921773113E+01 1.165588393E+00
 -8.947815858E-02 -7.474571741E-03 6.996223760E+04 9.881929647E+01 1.244545524E+00
 -7.950759706E-02 -6.840950996E-03 7.000335652E+04 9.835859220E+01 1.326487135E+00
 -7.042647446E-02 -6.263930960E-03 7.005071953E+04 9.782553812E+01 1.410986079E+00
 -6.216295640E-02 -5.738973701E-03 7.010528995E+04 9.720810891E+01 1.497404789E+00
 -5.465068884E-02 -5.261879319E-03 7.016820260E+04 9.649193886E+01 1.584743099E+00
 -4.782839521E-02 -4.828761622E-03 7.024078937E+04 9.565946984E+01 1.671609062E+00
 -4.163950229E-02 -4.436025738E-03 7.032461473E+04 9.469029046E+01 1.757075686E+00
 -3.603731488E-02 -4.040053697E-03 7.042140473E+04 9.355934586E+01 1.852742355E+00
 -3.099122479E-02 -3.501194959E-03 7.053336314E+04 9.223506541E+01 1.975007908E+00
 -2.643093221E-02 -3.014388598E-03 7.066345115E+04 9.067319440E+01 2.118924454E+00
 -2.231567695E-02 -2.575258653E-03 7.081552186E+04 8.881678263E+01 2.278048213E+00
 -1.860788056E-02 -2.179768110E-03 7.099412190E+04 8.658441457E+01 2.454414790E+00
 -1.527290876E-02 -1.824194425E-03 7.120589419E+04 8.387617029E+01 2.657688314E+00
 -1.227885118E-02 -1.505106705E-03 7.145816506E+04 8.050980350E+01 2.883583487E+00
 -9.596317000E-03 -1.219344421E-03 7.176495422E+04 7.628895650E+01 3.170239407E+00
 -7.198245459E-03 -9.639975426E-04 7.213532162E+04 7.068754699E+01 3.460092249E+00
 -5.059730175E-03 -7.363879863E-04 7.260088690E+04 6.334536472E+01 3.962065662E+00
 -3.157856247E-03 -5.340521617E-04 7.312294310E+04 5.260473677E+01 4.118630445E+00
 -1.471549251E-03 -3.547243226E-04 7.369821093E+04 3.942497657E+01 5.991195488E+00
 1.856476775E-05 -1.963187265E-04 7.401639644E+04 3.290540845E+01 8.091132943E+00
 -4.916318661E+00 -1.667794339E-01 6.969594247E+04 1.017578520E+02 3.287300185E-03
 -4.541380224E+00 -1.441965065E-01 6.969597598E+04 1.017574604E+02 5.130026786E-03
 -4.194098805E+00 -1.232772132E-01 6.969603916E+04 1.017567047E+02 9.373757401E-03
 -3.872488290E+00 -1.039021220E-01 6.969609651E+04 1.017559534E+02 1.441690064E-02
 -3.574702401E+00 -8.596021193E-02 6.969616449E+04 1.017550856E+02 1.988266679E-02
 -3.297384738E+00 -7.791883529E-02 6.969626167E+04 1.017539675E+02 2.571086091E-02
 -3.040369849E+00 -7.201199460E-02 6.969638569E+04 1.017525854E+02 3.191534647E-02
 -2.802524121E+00 -6.654369327E-02 6.969653116E+04 1.017509739E+02 3.852693511E-02
 -2.582460075E+00 -6.148222628E-02 6.969670191E+04 1.017490898E+02 4.558477479E-02
 -2.378888502E+00 -5.679813262E-02 6.969690251E+04 1.017468855E+02 5.313689429E-02
 -2.190611610E+00 -5.246403880E-02 6.969713672E+04 1.017443183E+02 6.123508400E-02
 -2.016516654E+00 -4.845451340E-02 6.969740937E+04 1.017413344E+02 6.993475553E-02
 -1.855570000E+00 -4.474593155E-02 6.969772639E+04 1.017378692E+02 7.929586991E-02
 -1.706811592E+00 -4.131634902E-02 6.969809458E+04 1.017338488E+02 8.938306436E-02
 -1.569349815E+00 -3.814538497E-02 6.969852181E+04 1.017291862E+02 1.002657217E-01
 -1.442356694E+00 -3.521411287E-02 6.969901732E+04 1.017237804E+02 1.120184898E-01
 -1.325063440E+00 -3.250495906E-02 6.969959187E+04 1.017175141E+02 1.247205202E-01
 -1.216756296E+00 -3.000160829E-02 6.970025805E+04 1.017102504E+02 1.384563188E-01
 -1.116772669E+00 -2.768891591E-02 6.970103063E+04 1.017018289E+02 1.533180112E-01
 -1.024497538E+00 -2.555282613E-02 6.970192670E+04 1.016920620E+02 1.694035413E-01
 -9.393600989E-01 -2.358029589E-02 6.970296614E+04 1.016807321E+02 1.868151785E-01
 -8.608306543E-01 -2.175922413E-02 6.970417223E+04 1.016675850E+02 2.056617749E-01
 -7.884177097E-01 -2.007838580E-02 6.970557205E+04 1.016523243E+02 2.260600577E-01
 -7.216652763E-01 -1.852737057E-02 6.970719711E+04 1.016346056E+02 2.481333908E-01
 -6.601503597E-01 -1.709652563E-02 6.970908400E+04 1.016140281E+02 2.720117997E-01
 -6.034806240E-01 -1.577690242E-02 6.971127525E+04 1.015901260E+02 2.978324777E-01
 -5.512922178E-01 -1.456020705E-02 6.971382021E+04 1.015623584E+02 3.257397136E-01
 -5.032477526E-01 -1.343875398E-02 6.971677604E+04 1.015300980E+02 3.558847624E-01
 -4.590344219E-01 -1.240542283E-02 6.972020892E+04 1.014926177E+02 3.884258051E-01
 -4.183622514E-01 -1.145361811E-02 6.972419538E+04 1.014490760E+02 4.235277994E-01
 -3.809624723E-01 -1.057723151E-02 6.972882377E+04 1.013984995E+02 4.613622300E-01
 -3.465860076E-01 -9.770606795E-03 6.973419600E+04 1.013397639E+02 5.021067809E-01
 -3.150020652E-01 -9.028506863E-03 6.974042945E+04 1.012715713E+02 5.459449470E-01
 -2.859968292E-01 -8.346083031E-03 6.974765912E+04 1.011924255E+02 5.930655673E-01
 -2.593722432E-01 -7.718846290E-03 6.975604018E+04 1.011006022E+02 6.436620879E-01
 -2.349448795E-01 -7.142640452E-03 6.976575069E+04 1.009941163E+02 6.979317384E-01
 -2.125448874E-01 -6.613617078E-03 6.977699483E+04 1.008706824E+02 7.560742865E-01
 -1.920150154E-01 -6.128212094E-03 6.979000661E+04 1.007276709E+02 8.182914261E-01
 -1.732097035E-01 -5.683124026E-03 6.980505401E+04 1.005620543E+02 8.847835863E-01
 -1.559942381E-01 -5.275293788E-03 6.982244397E+04 1.003703449E+02 9.557483900E-01
 -1.402439679E-01 -4.901885952E-03 6.984252818E+04 1.001485196E+02 1.031377721E+00
 -1.258435746E-01 -4.560271453E-03 6.986570963E+04 9.989193161E+01 1.111849819E+00
 -1.126863954E-01 -4.248011675E-03 6.989245056E+04 9.959520384E+01 1.197324891E+00
 -1.006737940E-01 -3.962843846E-03 6.992328280E+04 9.925208323E+01 1.287933516E+00
 -8.971457552E-02 -3.702667690E-03 6.995882078E+04 9.885526496E+01 1.383758600E+00
 -7.972444394E-02 -3.465533267E-03 6.999977505E+04 9.839618013E+01 1.484817323E+00
 -7.062549757E-02 -3.249629909E-03 7.004697131E+04 9.786473037E+01 1.591014998E+00
 -6.234576077E-02 -3.053276200E-03 7.010137445E+04 9.724886047E+01 1.702107383E+00
 -5.481874910E-02 -2.874910855E-03 7.016412230E+04 9.653417278E+01 1.817581936E+00
 -4.798306556E-02 -2.713084430E-03 7.023654942E+04 9.570302532E+01 1.936662731E+00
 -4.178202578E-02 -2.566451796E-03 7.032022323E+04 9.473505764E+01 2.059016896E+00
 -3.616748001E-02 -2.397573589E-03 7.041683931E+04 9.360544090E+01 2.195990776E+00
 -3.110393987E-02 -2.080491771E-03 7.052854238E+04 9.228318486E+01 2.363269178E+00
 -2.652787688E-02 -1.794110392E-03 7.065830760E+04 9.072404562E+01 2.557473864E+00
 -2.239838994E-02 -1.535845210E-03 7.081001019E+04 8.887049260E+01 2.774046634E+00
 -1.867777067E-02 -1.303311054E-03 7.098820337E+04 8.664139058E+01 3.017703431E+00
 -1.533126510E-02 -1.094307787E-03 7.119946373E+04 8.393671807E+01 3.298372160E+00
 -1.232685257E-02 -9.068071623E-04 7.145119322E+04 8.057473100E+01 3.620495503E+00
 -9.635040670E-03 -7.389405208E-04 7.175717895E+04 7.635875685E+01 4.014978714E+00
 -7.228675125E-03 -5.889872613E-04 7.212690912E+04 7.076308991E+01 4.462000000E+00
 -5.082763468E-03 -4.553640082E-04 7.259127964E+04 6.341960815E+01 5.108112217E+00
 -3.174311590E-03 -3.366143301E-04 7.311361593E+04 5.267396488E+01 5.568192422E+00
 -1.482172222E-03 -2.313987069E-04 7.368535319E+04 3.950625048E+01 7.575429804E+00
 1.309555987E-05 -1.384829409E-04 7.399860346E+04 3.299893303E+01 9.545740360E+00
 -4.919121367E+00 4.110405248E-02 6.969571703E+04 1.017587397E+02 3.497916140E-03
 -4.543635735E+00 4.548183226E-02 6.969574147E+04 1.017584782E+02 5.365311954E-03
 -4.195847500E+00 4.953885456E-02 6.969578832E+04 1.017579757E+02 9.662924837E-03
 -3.873767648E+00 5.329811511E-02 6.969583259E+04 1.017574642E+02 1.476557993E-02
 -3.575547204E+00 5.678099421E-02 6.969588745E+04 1.017568330E+02 2.029556597E-02
 -3.298119104E+00 5.335301557E-02 6.969596788E+04 1.017559704E+02 2.620069551E-02
 -3.041051539E+00 4.904431274E-02 6.969607232E+04 1.017548627E+02 3.249820122E-02
 -2.803157073E+00 4.505898702E-02 6.969619691E+04 1.017535336E+02 3.921664079E-02
 -2.583047942E+00 4.137359539E-02 6.969634522E+04 1.017519437E+02 4.639636607E-02
 -2.379434671E+00 3.796635660E-02 6.969652146E+04 1.017500495E+02 5.408810348E-02
 -2.191119221E+00 3.481703552E-02 6.969672930E+04 1.017478100E+02 6.234636126E-02
 -2.016988618E+00 3.190683532E-02 6.969697342E+04 1.017451736E+02 7.122958976E-02
 -1.856009015E+00 2.921829691E-02 6.969725953E+04 1.017420786E+02 8.080152127E-02
 -1.707220160E+00 2.673520524E-02 6.969759423E+04 1.017384532E+02 9.113131971E-02
 -1.569730253E+00 2.444250201E-02 6.969798522E+04 1.017342136E+02 1.022934153E-01
 -1.442711150E+00 2.232620424E-02 6.969844155E+04 1.017292612E+02 1.143680833E-01
 -1.325393903E+00 2.037332848E-02 6.969897378E+04 1.017234799E+02 1.274422601E-01
 -1.217064608E+00 1.857182019E-02 6.969959425E+04 1.017167347E+02 1.416084410E-01
 -1.117060537E+00 1.691048794E-02 6.970031746E+04 1.017088688E+02 1.569659626E-01
 -1.024766542E+00 1.537894216E-02 6.970116038E+04 1.016996980E+02 1.736230226E-01
 -9.396117028E-01 1.396753817E-02 6.970214271E+04 1.016890067E+02 1.916969954E-01
 -8.610662120E-01 1.266732304E-02 6.970328747E+04 1.016765426E+02 2.113109541E-01
 -7.886384746E-01 1.146998633E-02 6.970462149E+04 1.016620124E+02 2.325953757E-01
 -7.218724083E-01 1.036781411E-02 6.970617603E+04 1.016450739E+02 2.556924214E-01
 -6.603449320E-01 9.353646385E-03 6.970798752E+04 1.016253287E+02 2.807535652E-01
 -6.036636293E-01 8.420837451E-03 6.971009824E+04 1.016023132E+02 3.079395920E-01
 -5.514645743E-01 7.563219149E-03 6.971255733E+04 1.015754889E+02 3.374217858E-01
 -5.034103092E-01 6.775066782E-03 6.971542175E+04 1.015442305E+02 3.693821710E-01
 -4.591879635E-01 6.051067543E-03 6.971875750E+04 1.015078130E+02 4.040136356E-01
 -4.185075034E-01 5.386291289E-03 6.972264091E+04 1.014653965E+02 4.415202234E-01
 -3.811001050E-01 4.776163511E-03 6.972716016E+04 1.014160094E+02 4.821174008E-01
 -3.467166403E-01 4.216440376E-03 6.973241699E+04 1.013585288E+02 5.260322328E-01
 -3.151262697E-01 3.703185668E-03 6.973852859E+04 1.012916582E+02 5.735035384E-01
 -2.861151336E-01 3.232749529E-03 6.974562984E+04 1.012139023E+02 6.247819909E-01
 -2.594851349E-01 2.801748836E-03 6.975387572E+04 1.011235381E+02 6.801300876E-01
 -2.350528081E-01 2.407049100E-03 6.976344414E+04 1.010185809E+02 7.398220884E-01
 -2.126482676E-01 2.045747740E-03 6.977453911E+04 1.008967466E+02 8.041438247E-01
 -1.921142296E-01 1.715158618E-03 6.978739443E+04 1.007554058E+02 8.733925911E-01
 -1.733051041E-01 1.412797691E-03 6.980227786E+04 1.005915322E+02 9.478763290E-01
 -1.560861498E-01 1.136369668E-03 6.981949606E+04 1.004016387E+02 1.027913032E+00
 -1.403326897E-01 8.837555452E-04 6.983940034E+04 1.001817043E+02 1.113830647E+00
 -1.259293815E-01 6.530009197E-04 6.986239335E+04 9.992708163E+01 1.205962097E+00
 -1.127695406E-01 4.423049815E-04 6.988893693E+04 9.963239435E+01 1.304641557E+00
 -1.007545102E-01 2.500100968E-04 6.991956246E+04 9.929139243E+01 1.410202490E+00
 -8.979307678E-02 7.459191675E-05 6.995488363E+04 9.889677393E+01 1.522963542E+00
 -7.980092683E-02 -8.535004183E-05 6.999561028E+04 9.843996997E+01 1.643218625E+00
 -7.070014266E-02 -2.311013898E-04 7.004256775E+04 9.791088088E+01 1.771205352E+00
 -6.241873387E-02 -3.638414503E-04 7.009672023E+04 9.729744495E+01 1.907085327E+00
 -5.489020238E-02 -4.846514301E-04 7.015920560E+04 9.658526274E+01 2.050844277E+00
 -4.805313865E-02 -5.945221796E-04 7.023135757E+04 9.575665664E+01 2.202337930E+00
 -4.185084677E-02 -6.943615585E-04 7.031474464E+04 9.479129626E+01 2.361822166E+00
 -3.623381247E-02 -7.529215242E-04 7.041104309E+04 9.366451503E+01 2.540215531E+00
 -3.116175569E-02 -6.579189341E-04 7.052235709E+04 9.234572273E+01 2.752521278E+00
 -2.657799568E-02 -5.722362931E-04 7.065166052E+04 9.079072578E+01 2.997081276E+00
 -2.244156257E-02 -4.950833607E-04 7.080283625E+04 8.894177160E+01 3.271100326E+00
 -1.871468463E-02 -4.257289269E-04 7.098042384E+04 8.671790751E+01 3.581909715E+00
 -1.536254947E-02 -3.634972179E-04 7.119096153E+04 8.401933194E+01 3.939594865E+00
 -1.235308263E-02 -3.077644512E-04 7.144183962E+04 8.066452567E+01 4.357218883E+00
 -9.656742153E-03 -2.579555271E-04 7.174676440E+04 7.645714944E+01 4.858602634E+00
 -7.246328140E-03 -2.135408378E-04 7.211527063E+04 7.087217793E+01 5.459488647E+00
 -5.096806131E-03 -1.740331699E-04 7.257822480E+04 6.353199917E+01 6.256308409E+00
 -3.185143383E-03 -1.389846034E-04 7.309959030E+04 5.279299234E+01 7.005858643E+00
 -1.490157088E-03 -1.079830856E-04 7.366772878E+04 3.965473084E+01 9.152501969E+00
 7.626351982E-06 -8.064715534E-05 7.397754994E+04 3.316753630E+01 1.102135569E+01
 -4.913313371E+00 2.489252871E-01 6.969548903E+04 1.017596430E+02 3.645750633E-03
 -4.537940626E+00 2.351026591E-01 6.969550437E+04 1.017595134E+02 5.534339369E-03
 -4.190256967E+00 2.223018024E-01 6.969553456E+04 1.017592694E+02 9.881255885E-03
 -3.868273976E+00 2.104493062E-01 6.969556539E+04 1.017590023E+02 1.504411882E-02
 -3.570143229E+00 1.994769348E-01 6.969560696E+04 1.017586109E+02 2.064291584E-02
 -3.293089968E+00 1.845823459E-01 6.969567034E+04 1.017580084E+02 2.662853685E-02
 -3.036418943E+00 1.700613618E-01 6.969575472E+04 1.017571812E+02 3.301903356E-02
 -2.798891452E+00 1.566254295E-01 6.969585792E+04 1.017561411E+02 3.984184384E-02
 -2.579121869E+00 1.441959754E-01 6.969598320E+04 1.017548527E+02 4.713930448E-02
 -2.375822706E+00 1.326999921E-01 6.969613438E+04 1.017532767E+02 5.496502005E-02
 -2.187797773E+00 1.220696510E-01 6.969631504E+04 1.017513742E+02 6.337648144E-02
 -2.013935810E+00 1.122419408E-01 6.969652968E+04 1.017490962E+02 7.243551587E-02
 -1.853204565E+00 1.031583316E-01 6.969678379E+04 1.017463835E+02 8.220979465E-02
 -1.704645265E+00 9.476446129E-02 6.969708376E+04 1.017431672E+02 9.277288390E-02
 -1.567367487E+00 8.700984363E-02 6.969743705E+04 1.017393661E+02 1.042044341E-01
 -1.440544362E+00 7.984759668E-02 6.969785249E+04 1.017348843E+02 1.165908560E-01
 -1.323408129E+00 7.323418966E-02 6.969834042E+04 1.017296098E+02 1.300254514E-01
 -1.215245985E+00 6.712920736E-02 6.969891296E+04 1.017234092E+02 1.446096187E-01
 -1.115396223E+00 6.149513072E-02 6.969958431E+04 1.017161275E+02 1.604523630E-01
 -1.023244644E+00 5.629713271E-02 6.970037111E+04 1.017075836E+02 1.776704824E-01
 -9.382212085E-01 5.150288817E-02 6.970129283E+04 1.016975666E+02 1.963918157E-01
 -8.597969259E-01 4.708239703E-02 6.970237231E+04 1.016858281E+02 2.167569105E-01
 -7.874809597E-01 4.300781962E-02 6.970363609E+04 1.016720765E+02 2.389136475E-01
 -7.208179310E-01 3.925332361E-02 6.970511503E+04 1.016559736E+02 2.630192404E-01
 -6.593854111E-01 3.579494159E-02 6.970684527E+04 1.016371238E+02 2.892465163E-01
 -6.027915889E-01 3.261043861E-02 6.970886883E+04 1.016150667E+02 3.177809034E-01
 -5.506730999E-01 2.967918904E-02 6.971123453E+04 1.015892671E+02 3.488203972E-01
 -5.026930070E-01 2.698206220E-02 6.971399903E+04 1.015591030E+02 3.825774166E-01
 -4.585389221E-01 2.450131602E-02 6.971722803E+04 1.015238523E+02 4.192795088E-01
 -4.179212590E-01 2.222049827E-02 6.972099754E+04 1.014826783E+02 4.591697093E-01
 -3.805716082E-01 2.012435493E-02 6.972539545E+04 1.014346124E+02 5.025072558E-01
 -3.462412261E-01 1.819874507E-02 6.973052317E+04 1.013785346E+02 5.495683254E-01
 -3.146996293E-01 1.643056190E-02 6.973649763E+04 1.013131510E+02 6.006467052E-01
 -2.857332877E-01 1.480765951E-02 6.974345336E+04 1.012369692E+02 6.560544442E-01
 -2.591444100E-01 1.331878490E-02 6.975154504E+04 1.011482687E+02 7.161224969E-01