TITLE     = "fluent22.1.0  build-id: 10213"
VARIABLES = "X"
"Y"
"Pressure"
"X Velocity"
"Y Velocity"
DATASETAUXDATA Common.DensityVar="23"
DATASETAUXDATA Common.PressureVar="3"
DATASETAUXDATA Common.TemperatureVar="12"
DATASETAUXDATA Common.TurbulentDynamicViscosityVar="17"
DATASETAUXDATA Common.UVar="5"
DATASETAUXDATA Common.VectorVarsAreVelocity="TRUE"
DATASETAUXDATA Common.ViscosityVar="25"
DATASETAUXDATA Common.VVar="7"
ZONE T="fluid"
 STRANDID=1, SOLUTIONTIME=0.43
 Nodes=10240, Elements=10080, ZONETYPE=FEQuadrilateral
 DATAPACKING=POINT
 DT=(DOUBLE DOUBLE DOUBLE DOUBLE DOUBLE )
 -4.856290020E+00 -7.872354469E-01 6.969661523E+04 1.017552658E+02 2.394281770E-03
 -4.486950383E+00 -7.102829330E-01 6.969667668E+04 1.017544818E+02 4.184250515E-03
 -4.884823481E+00 -5.813004056E-01 6.969639590E+04 1.017560951E+02 2.755833193E-03
 -4.512964151E+00 -5.224035543E-01 6.969644774E+04 1.017554422E+02 4.575622545E-03
 -4.144854722E+00 -6.390044455E-01 6.969678866E+04 1.017529704E+02 8.332142043E-03
 -4.168534676E+00 -4.678489127E-01 6.969654317E+04 1.017541809E+02 8.780899681E-03
 -3.828046588E+00 -5.729925927E-01 6.969688466E+04 1.017515035E+02 1.328722916E-02
 -3.849565259E+00 -4.173247128E-01 6.969662607E+04 1.017529498E+02 1.379324187E-02
 -3.534707278E+00 -5.118686377E-01 6.969699251E+04 1.017499198E+02 1.864409269E-02
 -3.554224788E+00 -3.705411274E-01 6.969672030E+04 1.017516044E+02 1.921835800E-02
 -3.260629643E+00 -4.696042077E-01 6.969713928E+04 1.017480413E+02 2.430839641E-02
 -3.278586896E+00 -3.396339735E-01 6.969685069E+04 1.017499763E+02 2.497316437E-02
 -3.006465846E+00 -4.332176755E-01 6.969732005E+04 1.017458555E+02 3.029301492E-02
 -3.023028045E+00 -3.133613773E-01 6.969701311E+04 1.017480520E+02 3.106957302E-02
 -2.771258534E+00 -3.995429435E-01 6.969752605E+04 1.017434170E+02 3.664714480E-02
 -2.786529737E+00 -2.890462479E-01 6.969719951E+04 1.017458835E+02 3.755080257E-02
 -2.553635625E+00 -3.683837678E-01 6.969776186E+04 1.017406730E+02 4.340790361E-02
 -2.567712359E+00 -2.665469402E-01 6.969741426E+04 1.017434202E+02 4.445494984E-02
 -2.352322215E+00 -3.395578017E-01 6.969803268E+04 1.017375678E+02 5.061520832E-02
 -2.365294005E+00 -2.457318394E-01 6.969766244E+04 1.017406082E+02 5.182469408E-02
 -2.166133803E+00 -3.128956271E-01 6.969834250E+04 1.017340533E+02 5.831314099E-02
 -2.178083672E+00 -2.264786619E-01 6.969794796E+04 1.017374009E+02 5.970691151E-02
 -1.993969990E+00 -2.882398530E-01 6.969869668E+04 1.017300691E+02 6.654835902E-02
 -2.004974923E+00 -2.086738048E-01 6.969827597E+04 1.017337400E+02 6.815141624E-02
 -1.834808611E+00 -2.654442765E-01 6.969910163E+04 1.017255445E+02 7.537059119E-02
 -1.844939978E+00 -1.922117404E-01 6.969865277E+04 1.017295563E+02 7.721160143E-02
 -1.687700263E+00 -2.443731010E-01 6.969956452E+04 1.017203995E+02 8.483189859E-02
 -1.697024226E+00 -1.769944515E-01 6.969908545E+04 1.017247710E+02 8.694436780E-02
 -1.551763223E+00 -2.249002090E-01 6.970009370E+04 1.017145424E+02 9.498691717E-02
 -1.560341100E+00 -1.629309073E-01 6.969958219E+04 1.017192947E+02 9.740945641E-02
 -1.426178704E+00 -2.069084846E-01 6.970069888E+04 1.017078660E+02 1.058943062E-01
 -1.434067319E+00 -1.499365741E-01 6.970015256E+04 1.017130226E+02 1.086699815E-01
 -1.310186445E+00 -1.902891833E-01 6.970139124E+04 1.017002471E+02 1.176145175E-01
 -1.317438451E+00 -1.379329606E-01 6.970080771E+04 1.017058322E+02 1.207941673E-01
 -1.203080608E+00 -1.749413451E-01 6.970218374E+04 1.016915437E+02 1.302094063E-01
 -1.209744781E+00 -1.268471946E-01 6.970156053E+04 1.016975822E+02 1.338528516E-01
 -1.104205953E+00 -1.607712481E-01 6.970309144E+04 1.016815905E+02 1.437440097E-01
 -1.110327473E+00 -1.166116287E-01 6.970242593E+04 1.016881091E+02 1.479189371E-01
 -1.012954280E+00 -1.476919008E-01 6.970413187E+04 1.016701958E+02 1.582854508E-01
 -1.018574989E+00 -1.071634736E-01 6.970342135E+04 1.016772223E+02 1.630698727E-01
 -9.287611194E-01 -1.356225682E-01 6.970532531E+04 1.016571373E+02 1.739021918E-01
 -9.339197600E-01 -9.844445659E-02 6.970456704E+04 1.016647001E+02 1.793865130E-01
 -8.511026496E-01 -1.244883319E-01 6.970669535E+04 1.016421571E+02 1.906638571E-01
 -8.558350897E-01 -9.040050413E-02 6.970588655E+04 1.016502850E+02 1.969523327E-01
 -7.794928286E-01 -1.142196802E-01 6.970826932E+04 1.016249560E+02 2.086408314E-01
 -7.838322681E-01 -8.298144595E-02 6.970740719E+04 1.016336783E+02 2.158534021E-01
 -7.134807263E-01 -1.047521268E-01 6.971007897E+04 1.016051866E+02 2.279036303E-01
 -7.174578899E-01 -7.614073991E-02 6.970916070E+04 1.016145325E+02 2.361782883E-01
 -6.526480409E-01 -9.602585605E-02 6.971216109E+04 1.015824459E+02 2.485221744E-01
 -6.562913572E-01 -6.983521590E-02 6.971118390E+04 1.015924446E+02 2.580175411E-01
 -5.966067888E-01 -8.798539222E-02 6.971455835E+04 1.015562667E+02 2.705649530E-01
 -5.999425569E-01 -6.402483752E-02 6.971351949E+04 1.015669467E+02 2.814630845E-01
 -5.449971551E-01 -8.057929259E-02 6.971732016E+04 1.015261075E+02 2.940980581E-01
 -5.480496990E-01 -5.867248021E-02 6.971621697E+04 1.015374964E+02 3.066076041E-01
 -4.974854939E-01 -7.375986120E-02 6.972050367E+04 1.014913414E+02 3.191840139E-01
 -5.002773064E-01 -5.374372477E-02 6.971933362E+04 1.015034653E+02 3.335437644E-01
 -4.537624689E-01 -6.748288269E-02 6.972417499E+04 1.014512425E+02 3.458804526E-01
 -4.563143448E-01 -4.920666515E-02 6.972293568E+04 1.014641258E+02 3.623632705E-01
 -4.135413226E-01 -6.170737451E-02 6.972841047E+04 1.014049716E+02 3.742387360E-01
 -4.158724828E-01 -4.503172951E-02 6.972709970E+04 1.014186364E+02 3.931558930E-01
 -3.765562677E-01 -5.639535634E-02 6.973329823E+04 1.013515588E+02 4.043025068E-01
 -3.786844742E-01 -4.119151365E-02 6.973191402E+04 1.013660245E+02 4.260083812E-01
 -3.425609904E-01 -5.151163540E-02 6.973893986E+04 1.012898841E+02 4.361058277E-01
 -3.445026532E-01 -3.766062591E-02 6.973748046E+04 1.013051670E+02 4.610031139E-01
 -3.113272591E-01 -4.702360672E-02 6.974545234E+04 1.012186553E+02 4.696711794E-01
 -3.130975354E-01 -3.441554279E-02 6.974391631E+04 1.012347680E+02 4.982165537E-01
 -2.826436300E-01 -4.290106715E-02 6.975297021E+04 1.011363827E+02 5.050070487E-01
 -2.842565163E-01 -3.143447445E-02 6.975135644E+04 1.011533337E+02 5.377175918E-01
 -2.563142440E-01 -3.911604230E-02 6.976164807E+04 1.010413502E+02 5.421056906E-01
 -2.577826618E-01 -2.869723960E-02 6.975995583E+04 1.010591430E+02 5.795656429E-01
 -2.321577088E-01 -3.564262551E-02 6.977166334E+04 1.009315820E+02 5.809394305E-01
 -2.334935836E-01 -2.618514892E-02 6.976989231E+04 1.009502147E+02 6.238081136E-01
 -2.100060579E-01 -3.245682801E-02 6.978321949E+04 1.008048038E+02 6.214570838E-01
 -2.112203934E-01 -2.388089671E-02 6.978136985E+04 1.008242682E+02 6.704770151E-01
 -1.897037851E-01 -2.953643952E-02 6.979654970E+04 1.006583982E+02 6.635804466E-01
 -1.908067312E-01 -2.176845992E-02 6.979462214E+04 1.006786789E+02 7.195869354E-01
 -1.711069454E-01 -2.686089871E-02 6.981192108E+04 1.004893515E+02 7.071977580E-01
 -1.721078617E-01 -1.983300442E-02 6.980991689E+04 1.005104255E+02 7.711289467E-01
 -1.540823203E-01 -2.441117276E-02 6.982963954E+04 1.002941931E+02 7.521558649E-01
 -1.549898350E-01 -1.806079782E-02 6.982756068E+04 1.003160282E+02 8.250645844E-01
 -1.385066418E-01 -2.216964549E-02 6.985005545E+04 1.000689200E+02 7.982542166E-01
 -1.393287062E-01 -1.643912851E-02 6.984790477E+04 1.000914713E+02 8.813229710E-01
 -1.242658712E-01 -2.012001362E-02 6.987357027E+04 9.980891061E+01 8.452217778E-01
 -1.250098108E-01 -1.495623058E-02 6.987135172E+04 9.983212015E+01 9.397782007E-01
 -1.112545296E-01 -1.824719036E-02 6.990064394E+04 9.950882256E+01 8.927093640E-01
 -1.119270905E-01 -1.360121418E-02 6.989836281E+04 9.953261497E+01 1.000245726E+00
 -9.937507526E-02 -1.653721626E-02 6.993180528E+04 9.916244727E+01 9.402704044E-01
 -9.998246809E-02 -1.236400105E-02 6.992946856E+04 9.918672153E+01 1.062466886E+00
 -8.853732531E-02 -1.497717644E-02 6.996766479E+04 9.876253490E+01 9.873099673E-01
 -8.908526559E-02 -1.123526486E-02 6.996528184E+04 9.878715841E+01 1.126063700E+00
 -7.865791910E-02 -1.355512409E-02 7.000892849E+04 9.830058312E+01 1.033044051E+00
 -7.915166471E-02 -1.020637596E-02 7.000651120E+04 9.832539208E+01 1.190507558E+00
 -6.965981928E-02 -1.226000958E-02 7.005641375E+04 9.776659322E+01 1.076391213E+00
 -7.010420519E-02 -9.269350445E-03 7.005397866E+04 9.779137480E+01 1.255045130E+00
 -6.147184870E-02 -1.108161497E-02 7.011107163E+04 9.714871634E+01 1.115916544E+00
 -6.187131919E-02 -8.416802995E-03 7.010864408E+04 9.717313555E+01 1.318638996E+00
 -5.402826039E-02 -1.001049346E-02 7.017402179E+04 9.643276085E+01 1.149692319E+00
 -5.438689885E-02 -7.641903389E-03 7.017163650E+04 9.645637291E+01 1.379805103E+00
 -4.726833827E-02 -9.037913096E-03 7.024658244E+04 9.560146942E+01 1.175237863E+00
 -4.758989492E-02 -6.938336197E-03 7.024428183E+04 9.562365421E+01 1.436566326E+00
 -4.113602653E-02 -8.155805002E-03 7.033030914E+04 9.463431430E+01 1.190510036E+00
 -4.142394397E-02 -6.300263619E-03 7.032813896E+04 9.465453745E+01 1.487456043E+00
 -3.558780369E-02 -7.308246177E-03 7.042703686E+04 9.350514279E+01 1.207987344E+00
 -3.584389404E-02 -5.677904915E-03 7.042497164E+04 9.352362194E+01 1.544690274E+00
 -3.060308880E-02 -6.328162126E-03 7.053911658E+04 9.218094144E+01 1.244998256E+00
 -3.082410592E-02 -4.917902454E-03 7.053705843E+04 9.219857140E+01 1.625287859E+00
 -2.609826359E-02 -5.442614365E-03 7.066942745E+04 9.061789983E+01 1.293001274E+00
 -2.628758365E-02 -4.231246383E-03 7.066733537E+04 9.063520669E+01 1.722421835E+00
 -2.203306352E-02 -4.643661465E-03 7.082175847E+04 8.876083560E+01 1.342336644E+00
 -2.219377945E-02 -3.611773646E-03 7.081962035E+04 8.877742433E+01 1.827971137E+00
 -1.837036703E-02 -3.923979292E-03 7.100058956E+04 8.652773006E+01 1.390434590E+00
 -1.850531064E-02 -3.053799616E-03 7.099843596E+04 8.654351068E+01 1.941669064E+00
 -1.507596096E-02 -3.276815777E-03 7.121273772E+04 8.381970667E+01 1.445742207E+00
 -1.518772339E-02 -2.552083232E-03 7.121050343E+04 8.383386375E+01 2.072771838E+00
 -1.211832290E-02 -2.695948834E-03 7.146519264E+04 8.045326335E+01 1.489776471E+00
 -1.220927358E-02 -2.101794534E-03 7.146301301E+04 8.046586590E+01 2.209527715E+00
 -9.468419355E-03 -2.175647216E-03 7.177266408E+04 7.623481780E+01 1.567636858E+00
 -9.540723491E-03 -1.698484424E-03 7.177027103E+04 7.624358154E+01 2.395017079E+00
 -7.099518575E-03 -1.710634074E-03 7.214271223E+04 7.063815112E+01 1.568145565E+00
 -7.155153350E-03 -1.338056502E-03 7.214071602E+04 7.064336791E+01 2.541076603E+00
 -4.987016992E-03 -1.296053019E-03 7.260984103E+04 6.331164721E+01 1.784033823E+00
 -5.027786529E-03 -1.016740801E-03 7.260716849E+04 6.330332593E+01 2.906765835E+00
 -3.108278320E-03 -9.274364134E-04 7.312795809E+04 5.262266489E+01 1.394041892E+00
 -3.135827512E-03 -7.310691925E-04 7.312803446E+04 5.257765013E+01 2.762715936E+00
 -1.442484386E-03 -6.006755219E-04 7.371171456E+04 3.985746257E+01 2.994332639E+00
 -1.458311680E-03 -4.778521175E-04 7.370679801E+04 3.942673483E+01 4.506570089E+00
 2.950318352E-05 -3.119902977E-04 7.404500640E+04 3.371513511E+01 5.266791409E+00
 2.403397564E-05 -2.541545121E-04 7.403090817E+04 3.292174189E+01 6.735902081E+00
 -4.904860300E+00 -3.743658139E-01 6.969617179E+04 1.017569557E+02 3.081944483E-03
 -4.531132625E+00 -3.336012859E-01 6.969621452E+04 1.017564320E+02 4.929240181E-03
 -4.184972639E+00 -2.958414867E-01 6.969629405E+04 1.017554201E+02 9.187456888E-03
 -3.864400646E+00 -2.608706853E-01 6.969636440E+04 1.017544266E+02 1.425121945E-02
 -3.567576329E+00 -2.284883378E-01 6.969644560E+04 1.017533196E+02 1.973540594E-02
 -3.290856882E+00 -2.089955430E-01 6.969655958E+04 1.017519451E+02 2.557098951E-02
 -3.034346250E+00 -1.928890156E-01 6.969670313E+04 1.017502889E+02 3.177110941E-02
 -2.796967160E+00 -1.779817317E-01 6.969686941E+04 1.017483954E+02 3.837155691E-02
 -2.577334856E+00 -1.641869268E-01 6.969706254E+04 1.017462176E+02 4.541085988E-02
 -2.374162658E+00 -1.514239796E-01 6.969728739E+04 1.017437043E+02 5.293465761E-02
 -2.186255127E+00 -1.396179843E-01 6.969754778E+04 1.017408111E+02 6.099240639E-02
 -2.012501702E+00 -1.286993518E-01 6.969784872E+04 1.017374818E+02 6.963703236E-02
 -1.851870777E+00 -1.186034391E-01 6.969819631E+04 1.017336492E+02 7.892555996E-02
 -1.703404182E+00 -1.092702036E-01 6.969859753E+04 1.017292370E+02 8.891891613E-02
 -1.566212050E+00 -1.006438819E-01 6.969906042E+04 1.017241566E+02 9.968276679E-02
 -1.439468033E+00 -9.267269035E-02 6.969959437E+04 1.017183051E+02 1.112862383E-01
 -1.322404851E+00 -8.530854699E-02 6.970021035E+04 1.017115637E+02 1.238024998E-01
 -1.214310146E+00 -7.850681198E-02 6.970092119E+04 1.017037920E+02 1.373112236E-01
 -1.114522626E+00 -7.222604657E-02 6.970174172E+04 1.016948271E+02 1.518963859E-01
 -1.022428478E+00 -6.642778857E-02 6.970268917E+04 1.016844806E+02 1.676449144E-01
 -9.374580171E-01 -6.107634338E-02 6.970378367E+04 1.016725323E+02 1.846489213E-01
 -8.590825857E-01 -5.613858955E-02 6.970504867E+04 1.016587259E+02 2.030061987E-01
 -7.868116537E-01 -5.158379781E-02 6.970651141E+04 1.016427634E+02 2.228190464E-01
 -7.201901271E-01 -4.738346260E-02 6.970820353E+04 1.016242986E+02 2.441941959E-01
 -6.587958415E-01 -4.351114531E-02 6.971016179E+04 1.016029291E+02 2.672430284E-01
 -6.022372307E-01 -3.994232827E-02 6.971242885E+04 1.015781874E+02 2.920812536E-01
 -5.501511574E-01 -3.665427894E-02 6.971505417E+04 1.015495314E+02 3.188285352E-01
 -5.022008951E-01 -3.362592333E-02 6.971809503E+04 1.015163324E+02 3.476081293E-01
 -4.580742510E-01 -3.083772821E-02 6.972161772E+04 1.014778626E+02 3.785463859E-01
 -4.174818198E-01 -2.827159139E-02 6.972569881E+04 1.014332796E+02 4.117721771E-01
 -3.801553601E-01 -2.591073944E-02 6.973042672E+04 1.013816098E+02 4.474162266E-01
 -3.458462837E-01 -2.373963250E-02 6.973590339E+04 1.013217285E+02 4.856102819E-01
 -3.143242513E-01 -2.174387556E-02 6.974224622E+04 1.012523381E+02 5.264861913E-01
 -2.853758667E-01 -1.991013570E-02 6.974959024E+04 1.011719423E+02 5.701748760E-01
 -2.588034622E-01 -1.822606513E-02 6.975809059E+04 1.010788175E+02 6.168049406E-01
 -2.344239701E-01 -1.668022939E-02 6.976792533E+04 1.009709793E+02 6.665011781E-01
 -2.120678730E-01 -1.526204053E-02 6.977929864E+04 1.008461434E+02 7.193821123E-01
 -1.915782283E-01 -1.396169494E-02 6.979244451E+04 1.007016810E+02 7.755594773E-01
 -1.728097616E-01 -1.277011546E-02 6.980763090E+04 1.005345662E+02 8.351319720E-01
 -1.556280240E-01 -1.167889770E-02 6.982516471E+04 1.003413134E+02 8.981824219E-01
 -1.399086088E-01 -1.068026007E-02 6.984539767E+04 1.001179000E+02 9.647761450E-01
 -1.255364241E-01 -9.766997626E-03 6.986873286E+04 9.985968281E+01 1.034942770E+00
 -1.124050166E-01 -8.932439192E-03 6.989563228E+04 9.956129060E+01 1.108675894E+00
 -1.004159436E-01 -8.170407799E-03 6.992662733E+04 9.921647413E+01 1.185920192E+00
 -8.947818944E-02 -7.475184130E-03 6.996233219E+04 9.881793417E+01 1.266535115E+00
 -7.950762340E-02 -6.841472816E-03 7.000345715E+04 9.835711126E+01 1.350270427E+00
 -7.042649674E-02 -6.264371365E-03 7.005082698E+04 9.782392195E+01 1.436713696E+00
 -6.216297504E-02 -5.739341573E-03 7.010540515E+04 9.720633744E+01 1.525244902E+00
 -5.465070427E-02 -5.262183170E-03 7.016832664E+04 9.648998901E+01 1.614884736E+00
 -4.782840783E-02 -4.829009520E-03 7.024092339E+04 9.565731226E+01 1.704266808E+00
 -4.163951246E-02 -4.436225239E-03 7.032475994E+04 9.468790096E+01 1.792497074E+00
 -3.603732295E-02 -4.040211806E-03 7.042155982E+04 9.355671296E+01 1.891214838E+00
 -3.099123105E-02 -3.501318097E-03 7.053352271E+04 9.223221311E+01 2.016867636E+00
 -2.643093697E-02 -3.014482578E-03 7.066361088E+04 9.067014637E+01 2.164572660E+00
 -2.231568049E-02 -2.575328681E-03 7.081567867E+04 8.881350102E+01 2.327968786E+00
 -1.860788311E-02 -2.179818796E-03 7.099427341E+04 8.658091071E+01 2.509215638E+00
 -1.527291054E-02 -1.824229802E-03 7.120602987E+04 8.387231764E+01 2.718138629E+00
 -1.227885236E-02 -1.505130261E-03 7.145828693E+04 8.050592074E+01 2.950720524E+00
 -9.596317729E-03 -1.219359131E-03 7.176500490E+04 7.628428019E+01 3.245342422E+00
 -7.198245871E-03 -9.640059148E-04 7.213535884E+04 7.068497865E+01 3.545082362E+00
 -5.059730377E-03 -7.363920967E-04 7.260079845E+04 6.333822976E+01 4.055301817E+00
 -3.157856321E-03 -5.340536971E-04 7.312334866E+04 5.259927820E+01 4.223205811E+00
 -1.471549264E-03 -3.547246108E-04 7.369797802E+04 3.939285858E+01 6.122580064E+00
 1.856476775E-05 -1.963187265E-04 7.401484832E+04 3.283725685E+01 8.240663377E+00
 -4.916318661E+00 -1.667794339E-01 6.969594556E+04 1.017578390E+02 3.340033389E-03
 -4.541380258E+00 -1.441972329E-01 6.969597910E+04 1.017574464E+02 5.211675449E-03
 -4.194098869E+00 -1.232785823E-01 6.969604232E+04 1.017566889E+02 9.521999708E-03
 -3.872488382E+00 -1.039040566E-01 6.969609965E+04 1.017559361E+02 1.464433827E-02
 -3.574702516E+00 -8.596264102E-02 6.969616759E+04 1.017550670E+02 2.019621017E-02
 -3.297384873E+00 -7.792169589E-02 6.969626486E+04 1.017539468E+02 2.611667069E-02
 -3.040370001E+00 -7.201522667E-02 6.969638908E+04 1.017525618E+02 3.241968703E-02
 -2.802524288E+00 -6.654724113E-02 6.969653476E+04 1.017509474E+02 3.913636907E-02
 -2.582460255E+00 -6.148603879E-02 6.969670573E+04 1.017490602E+02 4.630639014E-02
 -2.378888692E+00 -5.680216282E-02 6.969690657E+04 1.017468526E+02 5.397845586E-02
 -2.190611808E+00 -5.246824364E-02 6.969714104E+04 1.017442819E+02 6.220506734E-02
 -2.016516859E+00 -4.845885339E-02 6.969741397E+04 1.017412942E+02 7.104238909E-02
 -1.855570209E+00 -4.475037051E-02 6.969773130E+04 1.017378250E+02 8.055123311E-02
 -1.706811805E+00 -4.132085384E-02 6.969809982E+04 1.017338003E+02 9.079715487E-02
 -1.569350029E+00 -3.814992535E-02 6.969852741E+04 1.017291331E+02 1.018505468E-01
 -1.442356909E+00 -3.521866114E-02 6.969902331E+04 1.017237225E+02 1.137870177E-01
 -1.325063655E+00 -3.250948996E-02 6.969959828E+04 1.017174510E+02 1.266870070E-01
 -1.216756508E+00 -3.000609884E-02 6.970026492E+04 1.017101811E+02 1.406364962E-01
 -1.116772879E+00 -2.769334525E-02 6.970103797E+04 1.017017532E+02 1.557282062E-01
 -1.024497743E+00 -2.555717536E-02 6.970193454E+04 1.016919796E+02 1.720618707E-01
 -9.393603001E-01 -2.358454801E-02 6.970297453E+04 1.016806422E+02 1.897418978E-01
 -8.608308503E-01 -2.176336388E-02 6.970418121E+04 1.016674870E+02 2.088782242E-01
 -7.884178998E-01 -2.008239965E-02 6.970558165E+04 1.016522176E+02 2.295893759E-01
 -7.216654599E-01 -1.853124658E-02 6.970720735E+04 1.016344895E+02 2.520007343E-01
 -6.601505364E-01 -1.710025343E-02 6.970909494E+04 1.016139017E+02 2.762443057E-01
 -6.034807933E-01 -1.578047318E-02 6.971128693E+04 1.015899885E+02 3.024594221E-01
 -5.512923794E-01 -1.456361338E-02 6.971383267E+04 1.015622089E+02 3.307927170E-01
 -5.032479063E-01 -1.344198995E-02 6.971678933E+04 1.015299353E+02 3.613979260E-01
 -4.590345674E-01 -1.240848391E-02 6.972022310E+04 1.014924406E+02 3.944358374E-01
 -4.183623886E-01 -1.145650113E-02 6.972421051E+04 1.014488832E+02 4.300741862E-01
 -3.809626010E-01 -1.057993466E-02 6.972883990E+04 1.013982897E+02 4.684874193E-01
 -3.465861278E-01 -9.773129569E-03 6.973421317E+04 1.013395355E+02 5.098563749E-01
 -3.150021769E-01 -9.030850014E-03 6.974044771E+04 1.012713229E+02 5.543679082E-01
 -2.859969325E-01 -8.348248531E-03 6.974767852E+04 1.011921551E+02 6.022144342E-01
 -2.593723383E-01 -7.720837270E-03 6.975606077E+04 1.011003078E+02 6.535932749E-01
 -2.349449666E-01 -7.144461133E-03 6.976577253E+04 1.009937955E+02 7.087058724E-01
 -2.125449666E-01 -6.615272693E-03 6.977701798E+04 1.008703326E+02 7.677564845E-01
 -1.920150871E-01 -6.129708799E-03 6.979003114E+04 1.007272891E+02 8.309517782E-01
 -1.732097680E-01 -5.684468797E-03 6.980507999E+04 1.005616371E+02 8.984973333E-01
 -1.559942958E-01 -5.276494309E-03 6.982247148E+04 1.003698885E+02 9.705967793E-01
 -1.402440191E-01 -4.902950497E-03 6.984255734E+04 1.001480191E+02 1.047449096E+00
 -1.258436198E-01 -4.561208758E-03 6.986574068E+04 9.989138061E+01 1.129238156E+00
 -1.126864350E-01 -4.248830809E-03 6.989248367E+04 9.959459644E+01 1.216133216E+00
 -1.006738283E-01 -3.963554077E-03 6.992331787E+04 9.925141481E+01 1.308276353E+00
 -8.971460509E-02 -3.703278361E-03 6.995885776E+04 9.885452892E+01 1.405760133E+00
 -7.972446918E-02 -3.466053665E-03 6.999981417E+04 9.839536618E+01 1.508613185E+00
 -7.062551891E-02 -3.250069155E-03 7.004701297E+04 9.786382536E+01 1.616755547E+00
 -6.234577864E-02 -3.053643140E-03 7.010141914E+04 9.724784822E+01 1.729960846E+00
 -5.481876389E-02 -2.875213969E-03 7.016417061E+04 9.653303476E+01 1.847737571E+00
 -4.798307766E-02 -2.713331755E-03 7.023660189E+04 9.570173787E+01 1.969335948E+00
 -4.178203555E-02 -2.566650860E-03 7.032028032E+04 9.473360375E+01 2.094454050E+00
 -3.616748777E-02 -2.397731376E-03 7.041689907E+04 9.360381448E+01 2.234477759E+00
 -3.110394591E-02 -2.080614699E-03 7.052859921E+04 9.228140902E+01 2.405142451E+00
 -2.652788148E-02 -1.794204245E-03 7.065835667E+04 9.072214613E+01 2.603133757E+00
 -2.239839335E-02 -1.535915169E-03 7.081004727E+04 8.886844172E+01 2.823976412E+00
 -1.867777314E-02 -1.303361709E-03 7.098822459E+04 8.663921355E+01 3.072507936E+00
 -1.533126682E-02 -1.094343156E-03 7.119945668E+04 8.393430347E+01 3.358815297E+00
 -1.232685371E-02 -9.068307220E-04 7.145115771E+04 8.057242835E+01 3.687595554E+00
 -9.635041381E-03 -7.389552408E-04 7.175705669E+04 7.635581045E+01 4.089937948E+00
 -7.228675529E-03 -5.889956431E-04 7.212676224E+04 7.076213345E+01 4.546690982E+00
 -5.082763665E-03 -4.553681261E-04 7.259099977E+04 6.341439013E+01 5.201274627E+00
 -3.174311663E-03 -3.366158698E-04 7.311377835E+04 5.266931087E+01 5.679543551E+00
 -1.482172236E-03 -2.313989963E-04 7.368472788E+04 3.948293738E+01 7.721628258E+00
 1.309555987E-05 -1.384829409E-04 7.399656169E+04 3.294918894E+01 9.711570651E+00
 -4.919121367E+00 4.110405248E-02 6.969571680E+04 1.017587407E+02 3.551001434E-03
 -4.543635768E+00 4.548110681E-02 6.969574113E+04 1.017584800E+02 5.447296358E-03
 -4.195847564E+00 4.953748709E-02 6.969578777E+04 1.017579793E+02 9.811465250E-03
 -3.873767738E+00 5.329618252E-02 6.969583181E+04 1.017574697E+02 1.499326642E-02
 -3.575547317E+00 5.677856735E-02 6.969588645E+04 1.017568408E+02 2.060929023E-02
 -3.298119237E+00 5.335015745E-02 6.969596674E+04 1.017559801E+02 2.660663675E-02
 -3.041051689E+00 4.904108338E-02 6.969607110E+04 1.017548737E+02 3.300266428E-02
 -2.803157238E+00 4.505544209E-02 6.969619561E+04 1.017535460E+02 3.982619737E-02
 -2.583048119E+00 4.136978601E-02 6.969634382E+04 1.017519575E+02 4.711810870E-02
 -2.379434858E+00 3.796232970E-02 6.969651995E+04 1.017500647E+02 5.492980357E-02
 -2.191119416E+00 3.481283415E-02 6.969672768E+04 1.017478266E+02 6.331650994E-02
 -2.016988820E+00 3.190249894E-02 6.969697167E+04 1.017451918E+02 7.233742099E-02
 -1.856009221E+00 2.921386169E-02 6.969725765E+04 1.017420983E+02 8.205711248E-02
 -1.707220369E+00 2.673070428E-02 6.969759221E+04 1.017384745E+02 9.254565984E-02
 -1.569730464E+00 2.443796560E-02 6.969798305E+04 1.017342364E+02 1.038785111E-01
 -1.442711361E+00 2.232166004E-02 6.969843922E+04 1.017292859E+02 1.161369285E-01
 -1.325394113E+00 2.036880172E-02 6.969897128E+04 1.017235065E+02 1.294090864E-01
 -1.217064816E+00 1.856733385E-02 6.969959158E+04 1.017167631E+02 1.437890265E-01
 -1.117060743E+00 1.690606287E-02 6.970031460E+04 1.017088986E+02 1.593770997E-01
 -1.024766744E+00 1.537459724E-02 6.970115727E+04 1.016997296E+02 1.762824313E-01
 -9.396118997E-01 1.396329039E-02 6.970213935E+04 1.016890402E+02 1.946244618E-01
 -8.610664036E-01 1.266318764E-02 6.970328386E+04 1.016765778E+02 2.145282486E-01
 -7.886386603E-01 1.146597683E-02 6.970461759E+04 1.016620495E+02 2.361256777E-01
 -7.218725875E-01 1.036394244E-02 6.970617182E+04 1.016451128E+02 2.595608229E-01
 -6.603451043E-01 9.349922882E-03 6.970798296E+04 1.016253693E+02 2.849872803E-01
 -6.036637943E-01 8.417270949E-03 6.971009332E+04 1.016023555E+02 3.125679645E-01
 -5.514647316E-01 7.559817005E-03 6.971255201E+04 1.015755327E+02 3.424764326E-01
 -5.034104586E-01 6.771834918E-03 6.971541601E+04 1.015442755E+02 3.748971913E-01
 -4.591881048E-01 6.048010473E-03 6.971875131E+04 1.015078589E+02 4.100257610E-01
 -4.185076364E-01 5.383412154E-03 6.972263424E+04 1.014654430E+02 4.480689690E-01
 -3.811002297E-01 4.773464110E-03 6.972715297E+04 1.014160560E+02 4.892452453E-01
 -3.467167566E-01 4.213921203E-03 6.973240923E+04 1.013585750E+02 5.337848160E-01
 -3.151263777E-01 3.700845953E-03 6.973852022E+04 1.012917034E+02 5.819298677E-01
 -2.861152334E-01 3.230587288E-03 6.974562081E+04 1.012139458E+02 6.339346706E-01
 -2.594852266E-01 2.799760926E-03 6.975386597E+04 1.011235789E+02 6.900656053E-01
 -2.350528920E-01 2.405231290E-03 6.976343360E+04 1.010186179E+02 7.506011400E-01
 -2.126483438E-01 2.044094789E-03 6.977452773E+04 1.008967782E+02 8.158316042E-01
 -1.921142986E-01 1.713664366E-03 6.978738215E+04 1.007554304E+02 8.860592368E-01
 -1.733051661E-01 1.411455161E-03 6.980226462E+04 1.005915477E+02 9.615971706E-01
 -1.560862052E-01 1.135171175E-03 6.981948177E+04 1.004016427E+02 1.042769364E+00
 -1.403327388E-01 8.826928185E-04 6.983938497E+04 1.001816938E+02 1.129911141E+00
 -1.259294248E-01 6.520652288E-04 6.986237692E+04 9.992705178E+01 1.223361282E+00
 -1.127695785E-01 4.414872658E-04 6.988891939E+04 9.963234040E+01 1.323462673E+00
 -1.007545431E-01 2.493010965E-04 6.991954351E+04 9.929131228E+01 1.430560126E+00
 -8.979310509E-02 7.398230237E-05 6.995486299E+04 9.889666375E+01 1.544981836E+00
 -7.980095099E-02 -8.586954586E-05 6.999558786E+04 9.843982235E+01 1.667033602E+00
 -7.070016310E-02 -2.315398894E-04 7.004254358E+04 9.791068599E+01 1.796968381E+00
 -6.241875098E-02 -3.642077771E-04 7.009669437E+04 9.729719047E+01 1.934965385E+00
 -5.489021656E-02 -4.849540491E-04 7.015917814E+04 9.658493478E+01 2.081030062E+00
 -4.805315026E-02 -5.947691117E-04 7.023132842E+04 9.575623730E+01 2.235046034E+00
 -4.185085614E-02 -6.945603181E-04 7.031471358E+04 9.479077392E+01 2.397300792E+00
 -3.623381993E-02 -7.530790859E-04 7.041100767E+04 9.366388803E+01 2.578743477E+00
 -3.116176149E-02 -6.580417124E-04 7.052231138E+04 9.234501544E+01 2.794429053E+00
 -2.657800011E-02 -5.723300519E-04 7.065159908E+04 9.078996759E+01 3.042772518E+00
 -2.244156587E-02 -4.951532655E-04 7.080275370E+04 8.894094416E+01 3.321067660E+00
 -1.871468702E-02 -4.257795547E-04 7.098031495E+04 8.671704853E+01 3.636757678E+00
 -1.536255114E-02 -3.635325774E-04 7.119081208E+04 8.401834201E+01 4.000101186E+00
 -1.235308374E-02 -3.077880117E-04 7.144164771E+04 8.066377611E+01 4.424360848E+00
 -9.656742846E-03 -2.579702527E-04 7.174647063E+04 7.645588142E+01 4.933661891E+00
 -7.246328534E-03 -2.135492265E-04 7.211493981E+04 7.087286378E+01 5.544145683E+00
 -5.096806325E-03 -1.740372936E-04 7.257774418E+04 6.352846240E+01 6.350289623E+00
 -3.185143456E-03 -1.389861469E-04 7.309947602E+04 5.279011136E+01 7.119257658E+00
 -1.490157101E-03 -1.079833763E-04 7.366668305E+04 3.963692679E+01 9.305538753E+00
 7.626351982E-06 -8.064715534E-05 7.397500775E+04 3.312707289E+01 1.119867225E+01
 -4.913313371E+00 2.489252871E-01 6.969548549E+04 1.017596579E+02 3.698202806E-03
 -4.537940659E+00 2.351019335E-01 6.969550057E+04 1.017595309E+02 5.615648826E-03
 -4.190257030E+00 2.223004344E-01 6.969553029E+04 1.017592924E+02 1.002905686E-02
 -3.868274064E+00 2.104473726E-01 6.969556070E+04 1.017590308E+02 1.527105093E-02
 -3.570143340E+00 1.994745065E-01 6.969560187E+04 1.017586451E+02 2.095590151E-02
 -3.293090099E+00 1.845794863E-01 6.969566487E+04 1.017580484E+02 2.703375442E-02
 -3.036419091E+00 1.700581308E-01 6.969574889E+04 1.017572267E+02 3.352277499E-02
 -2.798891614E+00 1.566218830E-01 6.969585170E+04 1.017561923E+02 4.045065846E-02
 -2.579122044E+00 1.441921644E-01 6.969597656E+04 1.017549098E+02 4.786026910E-02
 -2.375822891E+00 1.326959635E-01 6.969612729E+04 1.017533400E+02 5.580589207E-02
 -2.187797965E+00 1.220654479E-01 6.969630746E+04 1.017514439E+02 6.434573556E-02
 -2.013936009E+00 1.122376027E-01 6.969652158E+04 1.017491726E+02 7.354238733E-02
 -1.853204767E+00 1.031538947E-01 6.969677512E+04 1.017464671E+02 8.346436402E-02
 -1.704645471E+00 9.475995861E-02 6.969707447E+04 1.017432583E+02 9.418614913E-02
 -1.567367694E+00 8.700530551E-02 6.969742711E+04 1.017394650E+02 1.057883460E-01
 -1.440544569E+00 7.984305079E-02 6.969784184E+04 1.017349916E+02 1.183585515E-01
 -1.323408335E+00 7.322966125E-02 6.969832900E+04 1.017297258E+02 1.319911333E-01
 -1.215246189E+00 6.712471940E-02 6.969890073E+04 1.017235349E+02 1.467885052E-01
 -1.115396425E+00 6.149070409E-02 6.969957122E+04 1.017162632E+02 1.628616156E-01
 -1.023244842E+00 5.629278627E-02 6.970035704E+04 1.017077295E+02 1.803285997E-01
 -9.382214012E-01 5.149863895E-02 6.970127771E+04 1.016977235E+02 1.993180630E-01
 -8.597971134E-01 4.707826025E-02 6.970235609E+04 1.016859967E+02 2.199726554E-01
 -7.874811413E-01 4.300380883E-02 6.970361868E+04 1.016722574E+02 2.424424270E-01
 -7.208181060E-01 3.924945073E-02 6.970509634E+04 1.016561675E+02 2.668862314E-01
 -6.593855792E-01 3.579121697E-02 6.970682519E+04 1.016373315E+02 2.934787825E-01
 -6.027917497E-01 3.260687109E-02 6.970884728E+04 1.016152888E+02 3.224077525E-01
 -5.506732531E-01 2.967578599E-02 6.971121141E+04 1.015895042E+02 3.538735292E-01
 -5.026931523E-01 2.697882954E-02 6.971397423E+04 1.015593557E+02 3.880909637E-01
 -4.585390594E-01 2.449825827E-02 6.971720143E+04 1.015241212E+02 4.252902107E-01
 -4.179213880E-01 2.221761857E-02 6.972096903E+04 1.014829640E+02 4.657170970E-01
 -3.805717290E-01 2.012165508E-02 6.972536491E+04 1.014349153E+02 5.096338318E-01
 -3.462413387E-01 1.819622557E-02 6.973049047E+04 1.013788552E+02 5.573197651E-01
 -3.146997337E-01 1.642822197E-02 6.973646260E+04 1.013134898E+02 6.090720611E-01
 -2.857333841E-01 1.480549716E-02 6.974341586E+04 1.012373264E+02 6.652063668E-01
 -2.591444985E-01 1.331679699E-02 6.975150489E+04 1.011486444E+02 7.260575146E-01