TITLE     = "fluent22.1.0  build-id: 10213"
VARIABLES = "X"
"Y"
"Pressure"
"X Velocity"
"Y Velocity"
DATASETAUXDATA Common.DensityVar="23"
DATASETAUXDATA Common.PressureVar="3"
DATASETAUXDATA Common.TemperatureVar="12"
DATASETAUXDATA Common.TurbulentDynamicViscosityVar="17"
DATASETAUXDATA Common.UVar="5"
DATASETAUXDATA Common.VectorVarsAreVelocity="TRUE"
DATASETAUXDATA Common.ViscosityVar="25"
DATASETAUXDATA Common.VVar="7"
ZONE T="fluid"
 STRANDID=1, SOLUTIONTIME=0.45
 Nodes=10240, Elements=10080, ZONETYPE=FEQuadrilateral
 DATAPACKING=POINT
 DT=(DOUBLE DOUBLE DOUBLE DOUBLE DOUBLE )
 -4.856290020E+00 -7.872354469E-01 6.969672455E+04 1.017548349E+02 2.773332049E-03
 -4.486950690E+00 -7.102888260E-01 6.969678895E+04 1.017539953E+02 4.794949369E-03
 -4.884823481E+00 -5.813004056E-01 6.969647771E+04 1.017557715E+02 3.157276422E-03
 -4.512964452E+00 -5.224094104E-01 6.969653150E+04 1.017550791E+02 5.208908131E-03
 -4.144855300E+00 -6.390155428E-01 6.969690607E+04 1.017523764E+02 9.478162149E-03
 -4.168535243E+00 -4.678599442E-01 6.969663027E+04 1.017537414E+02 9.949401974E-03
 -3.828047403E+00 -5.730082631E-01 6.969700573E+04 1.017508081E+02 1.507201160E-02
 -3.849566059E+00 -4.173402942E-01 6.969671541E+04 1.017524384E+02 1.559983360E-02
 -3.534708299E+00 -5.118883003E-01 6.969711743E+04 1.017491259E+02 2.112328057E-02
 -3.554225791E+00 -3.705606833E-01 6.969681199E+04 1.017510239E+02 2.171893229E-02
 -3.260630845E+00 -4.696273458E-01 6.969727038E+04 1.017471370E+02 2.752851384E-02
 -3.278588077E+00 -3.396569940E-01 6.969694670E+04 1.017493169E+02 2.821549395E-02
 -3.006467204E+00 -4.332438050E-01 6.969745920E+04 1.017448267E+02 3.430110269E-02
 -3.023029379E+00 -3.133873802E-01 6.969711503E+04 1.017473021E+02 3.510184138E-02
 -2.771260025E+00 -3.995716168E-01 6.969767382E+04 1.017422609E+02 4.149481728E-02
 -2.786531202E+00 -2.890747865E-01 6.969730774E+04 1.017450411E+02 4.242490241E-02
 -2.553637229E+00 -3.684145739E-01 6.969791890E+04 1.017393848E+02 4.915115588E-02
 -2.567713934E+00 -2.665776045E-01 6.969752925E+04 1.017424820E+02 5.022703424E-02
 -2.352323911E+00 -3.395903633E-01 6.969819983E+04 1.017361408E+02 5.731497361E-02
 -2.365295671E+00 -2.457642528E-01 6.969778484E+04 1.017395689E+02 5.855592379E-02
 -2.166135574E+00 -3.129295980E-01 6.969852065E+04 1.017324801E+02 6.603606666E-02
 -2.178085412E+00 -2.265124791E-01 6.969807840E+04 1.017362550E+02 6.746417507E-02
 -1.993971820E+00 -2.882749160E-01 6.969888676E+04 1.017283414E+02 7.536726415E-02
 -2.004976720E+00 -2.087087093E-01 6.969841515E+04 1.017324812E+02 7.700804022E-02
 -1.834810485E+00 -2.654801409E-01 6.969930465E+04 1.017236521E+02 8.536495630E-02
 -1.844941818E+00 -1.922474419E-01 6.969880141E+04 1.017281772E+02 8.724747077E-02
 -1.687702168E+00 -2.444095006E-01 6.969978160E+04 1.017183312E+02 9.608902753E-02
 -1.697026094E+00 -1.770306844E-01 6.969924436E+04 1.017232641E+02 9.824628965E-02
 -1.551765146E+00 -2.249369001E-01 6.970032600E+04 1.017122865E+02 1.076022278E-01
 -1.560342985E+00 -1.629674287E-01 6.969975225E+04 1.017176505E+02 1.100730814E-01
 -1.426180633E+00 -2.069452447E-01 6.970094762E+04 1.017054102E+02 1.199704606E-01
 -1.434069210E+00 -1.499731619E-01 6.970033467E+04 1.017112307E+02 1.227997832E-01
 -1.310188371E+00 -1.903258091E-01 6.970165781E+04 1.016975774E+02 1.332642029E-01
 -1.317440337E+00 -1.379694122E-01 6.970100282E+04 1.017038830E+02 1.365022632E-01
 -1.203082521E+00 -1.749776514E-01 6.970246962E+04 1.016886442E+02 1.475567450E-01
 -1.209746653E+00 -1.268833254E-01 6.970176970E+04 1.016954646E+02 1.512618618E-01
 -1.104207844E+00 -1.608070668E-01 6.970339817E+04 1.016784448E+02 1.629230799E-01
 -1.110329323E+00 -1.166472711E-01 6.970265035E+04 1.016858103E+02 1.671642629E-01
 -1.012956141E+00 -1.477270793E-01 6.970446105E+04 1.016667862E+02 1.794416303E-01
 -1.018576808E+00 -1.071984757E-01 6.970366221E+04 1.016747287E+02 1.842981062E-01
 -9.287629435E-01 -1.356569691E-01 6.970567869E+04 1.016534446E+02 1.971937624E-01
 -9.339215420E-01 -9.847868160E-02 6.970482559E+04 1.016619974E+02 2.027557247E-01
 -8.511044301E-01 -1.245218317E-01 6.970707476E+04 1.016381607E+02 2.162627562E-01
 -8.558368279E-01 -9.043382935E-02 6.970616413E+04 1.016473579E+02 2.226343919E-01
 -7.794945598E-01 -1.142521692E-01 6.970867671E+04 1.016206337E+02 2.367333979E-01
 -7.838339568E-01 -8.301376218E-02 6.970770523E+04 1.016305100E+02 2.440350193E-01
 -7.134824029E-01 -1.047835080E-01 6.971051637E+04 1.016005150E+02 2.586917309E-01
 -7.174595240E-01 -7.617195090E-02 6.970948068E+04 1.016111054E+02 2.670616257E-01
 -6.526496584E-01 -9.605604500E-02 6.971263066E+04 1.015774000E+02 2.822243482E-01
 -6.562929324E-01 -6.986523792E-02 6.971152739E+04 1.015887396E+02 2.918213479E-01
 -5.966083430E-01 -8.801431657E-02 6.971506233E+04 1.015508200E+02 3.074175287E-01
 -5.999440692E-01 -6.405359893E-02 6.971388814E+04 1.015629435E+02 3.184239305E-01
 -5.449986426E-01 -8.060689178E-02 6.971786090E+04 1.015202318E+02 3.343563679E-01
 -5.480511451E-01 -5.869992116E-02 6.971661250E+04 1.015331734E+02 3.469810603E-01
 -4.974869119E-01 -7.378608622E-02 6.972108362E+04 1.014850067E+02 3.631236866E-01
 -5.002786836E-01 -5.376979694E-02 6.971975781E+04 1.014987995E+02 3.776056727E-01
 -4.537638149E-01 -6.750769583E-02 6.972479669E+04 1.014444172E+02 3.937987568E-01
 -4.563156509E-01 -4.923133148E-02 6.972339039E+04 1.014590928E+02 4.104111068E-01
 -4.135425948E-01 -6.173074913E-02 6.972907657E+04 1.013976224E+02 4.264560105E-01
 -4.158737162E-01 -4.505496397E-02 6.972758685E+04 1.014132103E+02 4.455102080E-01
 -3.765574648E-01 -5.641727665E-02 6.973401147E+04 1.013436502E+02 4.611637043E-01
 -3.786856338E-01 -4.121330102E-02 6.973243559E+04 1.013601776E+02 4.830143500E-01
 -3.425621118E-01 -5.153209620E-02 6.973970306E+04 1.012813788E+02 4.979821839E-01
 -3.445037384E-01 -3.768096149E-02 6.973803852E+04 1.012988700E+02 5.230321655E-01
 -3.113283044E-01 -4.704261311E-02 6.974626843E+04 1.012095138E+02 5.369619334E-01
 -3.130985461E-01 -3.443443207E-02 6.974451297E+04 1.012279896E+02 5.656681814E-01
 -2.826445996E-01 -4.291863415E-02 6.975384222E+04 1.011265629E+02 5.781414665E-01
 -2.842574529E-01 -3.145193279E-02 6.975199391E+04 1.011460403E+02 6.110213512E-01
 -2.563151388E-01 -3.913219443E-02 6.976257915E+04 1.010308074E+02 6.215450171E-01
 -2.577835254E-01 -2.871329171E-02 6.976063636E+04 1.010512988E+02 6.591831613E-01
 -2.321585299E-01 -3.565739626E-02 6.977265676E+04 1.009202682E+02 6.671799744E-01
 -2.334943755E-01 -2.619982840E-02 6.977061826E+04 1.009417810E+02 7.102357412E-01
 -2.100068072E-01 -3.247025918E-02 6.978427866E+04 1.007926677E+02 7.150325330E-01
 -2.112211156E-01 -2.389424535E-02 6.978214365E+04 1.008152032E+02 7.642488634E-01
 -1.897044647E-01 -2.954858057E-02 6.979767822E+04 1.006453840E+02 7.650641187E-01
 -1.908073858E-01 -2.178052705E-02 6.979544637E+04 1.006689370E+02 8.212769113E-01
 -1.711075580E-01 -2.687180588E-02 6.981312276E+04 1.004753988E+02 8.172072032E-01
 -1.721084513E-01 -1.984384606E-02 6.981079428E+04 1.004999564E+02 8.813551687E-01
 -1.540828688E-01 -2.442090818E-02 6.983091846E+04 1.002792351E+02 8.713571620E-01
 -1.549903627E-01 -1.807047576E-02 6.982849419E+04 1.003047756E+02 9.444950620E-01
 -1.385071295E-01 -2.217827624E-02 6.985141615E+04 1.000528816E+02 9.273671429E-01
 -1.393291753E-01 -1.644770938E-02 6.984889765E+04 1.000793726E+02 1.010678714E+00
 -1.242663018E-01 -2.012761062E-02 6.987501775E+04 9.979170776E+01 9.850256312E-01
 -1.250102247E-01 -1.496378482E-02 6.987240754E+04 9.981910472E+01 1.079838952E+00
 -1.112549068E-01 -1.825382737E-02 6.990218377E+04 9.949036072E+01 1.044050652E+00
 -1.119274530E-01 -1.360781495E-02 6.989948556E+04 9.951860242E+01 1.151859770E+00
 -9.937540297E-02 -1.654296871E-02 6.993344384E+04 9.914261721E+01 1.104072290E+00
 -9.998278302E-02 -1.236972320E-02 6.993066286E+04 9.917161820E+01 1.226560274E+00
 -8.853760758E-02 -1.498212043E-02 6.996940969E+04 9.874120847E+01 1.164583083E+00
 -8.908553687E-02 -1.124018383E-02 6.996655331E+04 9.877085377E+01 1.303650666E+00
 -7.865816001E-02 -1.355933530E-02 7.001078879E+04 9.827760824E+01 1.224900730E+00
 -7.915189627E-02 -1.021056681E-02 7.000786656E+04 9.830775455E+01 1.382704961E+00
 -6.966002287E-02 -1.226356233E-02 7.005840049E+04 9.774178908E+01 1.284063111E+00
 -7.010440093E-02 -9.272886861E-03 7.005542614E+04 9.777224758E+01 1.463090211E+00
 -6.147201895E-02 -1.108458136E-02 7.011319823E+04 9.712186072E+01 1.340774313E+00
 -6.187148293E-02 -8.419756469E-03 7.011019379E+04 9.715232535E+01 1.543910477E+00
 -5.402840113E-02 -1.001294258E-02 7.017630510E+04 9.640358982E+01 1.393278367E+00
 -5.438703429E-02 -7.644342443E-03 7.017330136E+04 9.643364860E+01 1.623855336E+00
 -4.726845317E-02 -9.039910374E-03 7.024904202E+04 9.556964196E+01 1.439293648E+00
 -4.759000556E-02 -6.940325751E-03 7.024607687E+04 9.559871508E+01 1.701148699E+00
 -4.113611906E-02 -8.157411708E-03 7.033296623E+04 9.459952987E+01 1.477045508E+00
 -4.142403312E-02 -6.301864484E-03 7.033007988E+04 9.462712725E+01 1.774591387E+00
 -3.558787698E-02 -7.309518874E-03 7.042988780E+04 9.346723884E+01 1.519356732E+00
 -3.584396472E-02 -5.679173351E-03 7.042705012E+04 9.349361078E+01 1.856735165E+00
 -3.060314553E-02 -6.329152228E-03 7.054211784E+04 9.214008589E+01 1.583992706E+00
 -3.082416072E-02 -4.918889847E-03 7.053922844E+04 9.216614357E+01 1.965023584E+00
 -2.609830660E-02 -5.443369179E-03 7.067255605E+04 9.057416980E+01 1.662986250E+00
 -2.628762527E-02 -4.231999598E-03 7.066956754E+04 9.060048141E+01 2.093203870E+00
 -2.203309533E-02 -4.644223277E-03 7.082501367E+04 8.871369803E+01 1.747301106E+00
 -2.219381029E-02 -3.612334617E-03 7.082190451E+04 8.873995280E+01 2.233797692E+00
 -1.837038987E-02 -3.924385466E-03 7.100397846E+04 8.647688921E+01 1.835443481E+00
 -1.850533283E-02 -3.054205436E-03 7.100076693E+04 8.650308335E+01 2.387625189E+00
 -1.507597676E-02 -3.277098946E-03 7.121622591E+04 8.376413081E+01 1.937036564E+00
 -1.518773878E-02 -2.552366333E-03 7.121283273E+04 8.378957516E+01 2.565091837E+00
 -1.211833332E-02 -2.696137157E-03 7.146880829E+04 8.039322852E+01 2.036011609E+00
 -1.220928375E-02 -2.101982932E-03 7.146534639E+04 8.041814635E+01 2.756975461E+00
 -9.468425796E-03 -2.175764684E-03 7.177623196E+04 7.616695719E+01 2.179955844E+00
 -9.540729793E-03 -1.698602016E-03 7.177240805E+04 7.618931749E+01 3.008218910E+00
 -7.099522199E-03 -1.710700840E-03 7.214642003E+04 7.056869878E+01 2.262712262E+00
 -7.155156907E-03 -1.338123385E-03 7.214283110E+04 7.058811897E+01 3.237438475E+00
 -4.987018750E-03 -1.296085750E-03 7.261297793E+04 6.321640027E+01 2.578268842E+00
 -5.027788259E-03 -1.016773614E-03 7.260851043E+04 6.322415669E+01 3.699046637E+00
 -3.108278968E-03 -9.274486171E-04 7.313293304E+04 5.252517144E+01 2.305700002E+00
 -3.135828152E-03 -7.310814378E-04 7.313086710E+04 5.250227053E+01 3.726270438E+00
 -1.442484505E-03 -6.006778069E-04 7.371126182E+04 3.924781497E+01 4.236271220E+00
 -1.458311798E-03 -4.778544129E-04 7.370466630E+04 3.916915974E+01 5.757738169E+00
 2.950318352E-05 -3.119902977E-04 7.403642751E+04 3.256508525E+01 6.774956227E+00
 2.403397564E-05 -2.541545121E-04 7.402134203E+04 3.244968803E+01 8.151631667E+00
 -4.904860300E+00 -3.743658139E-01 6.969622582E+04 1.017567415E+02 3.500929959E-03
 -4.531132921E+00 -3.336071143E-01 6.969626955E+04 1.017561937E+02 5.580040074E-03
 -4.184973197E+00 -2.958524693E-01 6.969635073E+04 1.017551357E+02 1.037288800E-02
 -3.864401432E+00 -2.608862014E-01 6.969642199E+04 1.017540999E+02 1.607351735E-02
 -3.567577315E+00 -2.285078161E-01 6.969650414E+04 1.017529531E+02 2.225033836E-02
 -3.290858043E+00 -2.090184779E-01 6.969662061E+04 1.017515313E+02 2.882737816E-02
 -3.034347563E+00 -1.929149262E-01 6.969676793E+04 1.017498182E+02 3.581852481E-02
 -2.796968601E+00 -1.780101722E-01 6.969693822E+04 1.017478668E+02 4.326220514E-02
 -2.577336404E+00 -1.642174877E-01 6.969713562E+04 1.017456289E+02 5.120100809E-02
 -2.374164296E+00 -1.514562849E-01 6.969736517E+04 1.017430518E+02 5.968569759E-02
 -2.186256836E+00 -1.396516892E-01 6.969763066E+04 1.017400910E+02 6.877148440E-02
 -2.012503467E+00 -1.287341403E-01 6.969793712E+04 1.017366900E+02 7.851749047E-02
 -1.851872583E+00 -1.186390215E-01 6.969829071E+04 1.017327812E+02 8.898738258E-02
 -1.703406016E+00 -1.093063147E-01 6.969869843E+04 1.017282881E+02 1.002496511E-01
 -1.566213901E+00 -1.006802791E-01 6.969916836E+04 1.017231209E+02 1.123775550E-01
 -1.439469888E+00 -9.270915206E-02 6.969970996E+04 1.017171762E+02 1.254493943E-01
 -1.322406700E+00 -8.534487097E-02 6.970033421E+04 1.017103335E+02 1.395483488E-01
 -1.214311980E+00 -7.854281411E-02 6.970105392E+04 1.017024528E+02 1.547624745E-01
 -1.114524438E+00 -7.226155965E-02 6.970188402E+04 1.016933718E+02 1.711857457E-01
 -1.022430258E+00 -6.646266123E-02 6.970284185E+04 1.016829001E+02 1.889194499E-01
 -9.374597594E-01 -6.111043923E-02 6.970394758E+04 1.016708166E+02 2.080688813E-01
 -8.590842839E-01 -5.617178638E-02 6.970522463E+04 1.016568647E+02 2.287433013E-01
 -7.868133023E-01 -5.161598693E-02 6.970670030E+04 1.016407458E+02 2.510597499E-01
 -7.201917211E-01 -4.741454827E-02 6.970840629E+04 1.016221125E+02 2.751410487E-01
 -6.587973766E-01 -4.354104430E-02 6.971037941E+04 1.016005614E+02 3.011150646E-01
 -6.022387032E-01 -3.997096947E-02 6.971266237E+04 1.015756243E+02 3.291152132E-01
 -5.501525642E-01 -3.668160301E-02 6.971530467E+04 1.015467579E+02 3.592802572E-01
 -5.022022337E-01 -3.365188244E-02 6.971836363E+04 1.015133325E+02 3.917537740E-01
 -4.580755193E-01 -3.086228580E-02 6.972190557E+04 1.014746191E+02 4.266837373E-01
 -4.174830164E-01 -2.829472188E-02 6.972600712E+04 1.014297742E+02 4.642221040E-01
 -3.801564840E-01 -2.593242802E-02 6.973075672E+04 1.013778226E+02 5.045242497E-01
 -3.458473345E-01 -2.375987485E-02 6.973625634E+04 1.013176384E+02 5.477482225E-01
 -3.143252290E-01 -2.176267748E-02 6.974262341E+04 1.012479222E+02 5.940539695E-01
 -2.853767720E-01 -1.992751278E-02 6.974999300E+04 1.011671759E+02 6.436024923E-01
 -2.588042961E-01 -1.824204227E-02 6.975852030E+04 1.010736739E+02 6.965546964E-01
 -2.344247341E-01 -1.669484026E-02 6.976838338E+04 1.009654292E+02 7.530700990E-01
 -2.120685691E-01 -1.527532696E-02 6.977978648E+04 1.008401549E+02 8.133050424E-01
 -1.915788588E-01 -1.397370617E-02 6.979296364E+04 1.006952192E+02 8.774108913E-01
 -1.728103292E-01 -1.278090735E-02 6.980818291E+04 1.005275914E+02 9.455310594E-01
 -1.556285316E-01 -1.168853183E-02 6.982575140E+04 1.003337810E+02 1.017799464E+00
 -1.399090598E-01 -1.068880278E-02 6.984602089E+04 1.001097604E+02 1.094334193E+00
 -1.255368219E-01 -9.774518987E-03 6.986939467E+04 9.985087906E+01 1.175224421E+00
 -1.124053649E-01 -8.939011977E-03 6.989633504E+04 9.955175739E+01 1.260533025E+00
 -1.004162462E-01 -8.176106411E-03 6.992737378E+04 9.920613487E+01 1.350281317E+00
 -8.947845003E-02 -7.480083567E-03 6.996312576E+04 9.880669764E+01 1.444417570E+00
 -7.950784586E-02 -6.845647664E-03 7.000430207E+04 9.834486773E+01 1.542797205E+00
 -7.042668483E-02 -6.267894864E-03 7.005172860E+04 9.781053962E+01 1.645129635E+00
 -6.216313243E-02 -5.742284770E-03 7.010637013E+04 9.719165330E+01 1.750937529E+00
 -5.465083451E-02 -5.264614171E-03 7.016936372E+04 9.647380743E+01 1.859417127E+00
 -4.782851429E-02 -4.830992863E-03 7.024204270E+04 9.563937612E+01 1.969408354E+00
 -4.163959831E-02 -4.437821387E-03 7.032597135E+04 9.466799869E+01 2.080278673E+00
 -3.603739107E-02 -4.041476792E-03 7.042285053E+04 9.353475055E+01 2.203978810E+00
 -3.099128395E-02 -3.502303275E-03 7.053484448E+04 9.220839237E+01 2.357380988E+00
 -2.643097721E-02 -3.015234470E-03 7.066492814E+04 9.064462357E+01 2.536195476E+00
 -2.231571037E-02 -2.575888943E-03 7.081697175E+04 8.878591122E+01 2.734721687E+00
 -1.860790465E-02 -2.180224306E-03 7.099552452E+04 8.655112614E+01 2.956203628E+00
 -1.527292550E-02 -1.824512832E-03 7.120717669E+04 8.383956976E+01 3.211610966E+00
 -1.227886228E-02 -1.505318711E-03 7.145931130E+04 8.047075766E+01 3.499493537E+00
 -9.596323891E-03 -1.219476821E-03 7.176568840E+04 7.624384230E+01 3.859813539E+00
 -7.198249359E-03 -9.640728936E-04 7.213584037E+04 7.064428409E+01 4.243605319E+00
 -5.059732079E-03 -7.364249805E-04 7.260032847E+04 6.327556059E+01 4.850872383E+00
 -3.157856953E-03 -5.340659804E-04 7.312378012E+04 5.254121928E+01 5.191378761E+00
 -1.471549382E-03 -3.547269165E-04 7.369328509E+04 3.923548102E+01 7.367341813E+00
 1.856476775E-05 -1.963187265E-04 7.400307987E+04 3.254942886E+01 9.637707564E+00
 -4.916318661E+00 -1.667794339E-01 6.969597185E+04 1.017577348E+02 3.767853776E-03
 -4.541380549E+00 -1.442030433E-01 6.969600545E+04 1.017573337E+02 5.871051916E-03
 -4.194099418E+00 -1.232895335E-01 6.969606861E+04 1.017565606E+02 1.071548069E-02
 -3.872489156E+00 -1.039195313E-01 6.969612547E+04 1.017557947E+02 1.647429366E-02
 -3.574703487E+00 -8.598207102E-02 6.969619298E+04 1.017549148E+02 2.271861929E-02
 -3.297386017E+00 -7.794457750E-02 6.969629092E+04 1.017537785E+02 2.938092338E-02
 -3.040371294E+00 -7.204107969E-02 6.969641676E+04 1.017523699E+02 3.647596085E-02
 -2.802525706E+00 -6.657562014E-02 6.969656414E+04 1.017507316E+02 4.403693685E-02
 -2.582461780E+00 -6.151653469E-02 6.969673689E+04 1.017488199E+02 5.210750458E-02
 -2.378890304E+00 -5.683440012E-02 6.969693972E+04 1.017465858E+02 6.074159927E-02
 -2.190613490E+00 -5.250187786E-02 6.969717634E+04 1.017439869E+02 6.999742579E-02
 -2.016518595E+00 -4.849356872E-02 6.969745160E+04 1.017409691E+02 7.993730830E-02
 -1.855571985E+00 -4.478587760E-02 6.969777145E+04 1.017374676E+02 9.062885845E-02
 -1.706813608E+00 -4.135688777E-02 6.969814270E+04 1.017334080E+02 1.021450947E-01
 -1.569351847E+00 -3.818624380E-02 6.969857324E+04 1.017287037E+02 1.145643152E-01
 -1.442358730E+00 -3.525504273E-02 6.969907235E+04 1.017232537E+02 1.279705476E-01
 -1.325065469E+00 -3.254573275E-02 6.969965081E+04 1.017169388E+02 1.424542975E-01
 -1.216758307E+00 -3.004201898E-02 6.970032123E+04 1.017096212E+02 1.581120642E-01
 -1.116774653E+00 -2.772877579E-02 6.970109828E+04 1.017011408E+02 1.750460553E-01
 -1.024499487E+00 -2.559196524E-02 6.970199910E+04 1.016913110E+02 1.933659472E-01
 -9.393620050E-01 -2.361856112E-02 6.970304377E+04 1.016799130E+02 2.131917615E-01
 -8.608325108E-01 -2.179647831E-02 6.970425554E+04 1.016666912E+02 2.346484313E-01
 -7.884195105E-01 -2.011450700E-02 6.970566142E+04 1.016513499E+02 2.578661275E-01
 -7.216670160E-01 -1.856225146E-02 6.970729293E+04 1.016335437E+02 2.829860545E-01
 -6.601520338E-01 -1.713007293E-02 6.970918673E+04 1.016128709E+02 3.101576639E-01
 -6.034822283E-01 -1.580903650E-02 6.971138537E+04 1.015888650E+02 3.395378470E-01
 -5.512937491E-01 -1.459086153E-02 6.971393820E+04 1.015609844E+02 3.712920467E-01
 -5.032492083E-01 -1.346787542E-02 6.971690240E+04 1.015286009E+02 4.055943938E-01
 -4.590357998E-01 -1.243297043E-02 6.972034417E+04 1.014909864E+02 4.426273904E-01
 -4.183635501E-01 -1.147956345E-02 6.972434005E+04 1.014472984E+02 4.825818461E-01
 -3.809636908E-01 -1.060155824E-02 6.972897839E+04 1.013965623E+02 5.256568327E-01
 -3.465871457E-01 -9.793310311E-03 6.973436109E+04 1.013376527E+02 5.720594762E-01
 -3.150031232E-01 -9.049593956E-03 6.974060551E+04 1.012692702E+02 6.220047300E-01
 -2.859978078E-01 -8.365571435E-03 6.974784670E+04 1.011899167E+02 6.757151131E-01
 -2.593731438E-01 -7.736764168E-03 6.975623977E+04 1.010978662E+02 7.334202371E-01
 -2.349457039E-01 -7.159025785E-03 6.976596281E+04 1.009911311E+02 7.953562567E-01
 -2.125456378E-01 -6.628516954E-03 6.977721999E+04 1.008674237E+02 8.617651127E-01
 -1.920156945E-01 -6.141681897E-03 6.979024532E+04 1.007241109E+02 9.328936919E-01
 -1.732103144E-01 -5.695226524E-03 6.980530681E+04 1.005581614E+02 1.008992349E+00
 -1.559947841E-01 -5.286098129E-03 6.982271145E+04 1.003660832E+02 1.090314125E+00
 -1.402444527E-01 -4.911466584E-03 6.984281096E+04 1.001438474E+02 1.177112304E+00
 -1.258440021E-01 -4.568706992E-03 6.986600855E+04 9.988679954E+01 1.269630802E+00
 -1.126867696E-01 -4.255383726E-03 6.989276647E+04 9.958955614E+01 1.368106520E+00
 -1.006741189E-01 -3.969235824E-03 6.992361654E+04 9.924585563E+01 1.472761081E+00
 -8.971485530E-02 -3.708163657E-03 6.995917357E+04 9.884837999E+01 1.583775922E+00
 -7.972468278E-02 -3.470216813E-03 7.000014874E+04 9.838854149E+01 1.701281868E+00
 -7.062569953E-02 -3.253583108E-03 7.004736871E+04 9.785621968E+01 1.825321674E+00
 -6.234592983E-02 -3.056578662E-03 7.010179926E+04 9.723932987E+01 1.955815168E+00
 -5.481888905E-02 -2.877638895E-03 7.016457968E+04 9.652344490E+01 2.092446496E+00
 -4.798318003E-02 -2.715310369E-03 7.023704514E+04 9.569086420E+01 2.234674124E+00
 -4.178211815E-02 -2.568243392E-03 7.032076188E+04 9.472128219E+01 2.382453455E+00
 -3.616755338E-02 -2.398993701E-03 7.041740158E+04 9.358999019E+01 2.547492551E+00
 -3.110399693E-02 -2.081598146E-03 7.052907194E+04 9.226629872E+01 2.745950280E+00
 -2.652792036E-02 -1.794955081E-03 7.065875814E+04 9.070593730E+01 2.975078321E+00
 -2.239842227E-02 -1.536474847E-03 7.081034843E+04 8.885085420E+01 3.231078906E+00
 -1.867779403E-02 -1.303766949E-03 7.098839469E+04 8.662020563E+01 3.519859675E+00
 -1.533128137E-02 -1.094626108E-03 7.119941984E+04 8.391325184E+01 3.852682187E+00
 -1.232686337E-02 -9.070191987E-04 7.145087100E+04 8.055000976E+01 4.236718885E+00
 -9.635047401E-03 -7.390729996E-04 7.175628705E+04 7.632939593E+01 4.704858522E+00
 -7.228678946E-03 -5.890626966E-04 7.212559878E+04 7.073657752E+01 5.245114343E+00
 -5.082765338E-03 -4.554010682E-04 7.258870235E+04 6.336835494E+01 5.999482648E+00
 -3.174312287E-03 -3.366281874E-04 7.311183009E+04 5.263140687E+01 6.646501793E+00
 -1.482172353E-03 -2.314013121E-04 7.367716120E+04 3.937100907E+01 8.977226285E+00
 1.309555987E-05 -1.384829409E-04 7.398191858E+04 3.272970946E+01 1.113882056E+01
 -4.919121367E+00 4.110405248E-02 6.969571534E+04 1.017587467E+02 3.981635949E-03
 -4.543636055E+00 4.547530422E-02 6.969573879E+04 1.017584928E+02 6.109446285E-03
 -4.195848104E+00 4.952654927E-02 6.969578365E+04 1.017580071E+02 1.100755138E-02
 -3.873768501E+00 5.328072449E-02 6.969582587E+04 1.017575135E+02 1.682550933E-02
 -3.575548274E+00 5.675915589E-02 6.969587870E+04 1.017569025E+02 2.313342527E-02
 -3.298120365E+00 5.332729649E-02 6.969595784E+04 1.017560567E+02 2.987210343E-02
 -3.041052963E+00 4.901525309E-02 6.969606167E+04 1.017549602E+02 3.705999333E-02
 -2.803158635E+00 4.502708766E-02 6.969618556E+04 1.017536431E+02 4.472780971E-02
 -2.583049621E+00 4.133931636E-02 6.969633306E+04 1.017520657E+02 5.292031245E-02
 -2.379436445E+00 3.793012017E-02 6.969650846E+04 1.017501839E+02 6.169415754E-02
 -2.191121072E+00 3.477922906E-02 6.969671540E+04 1.017479570E+02 7.111028111E-02
 -2.016990528E+00 3.186781399E-02 6.969695852E+04 1.017453337E+02 8.123403826E-02
 -1.856010968E+00 2.917838610E-02 6.969724355E+04 1.017422521E+02 9.213677339E-02
 -1.707222142E+00 2.669470287E-02 6.969757707E+04 1.017386404E+02 1.038958583E-01
 -1.569732250E+00 2.440168056E-02 6.969796678E+04 1.017344148E+02 1.165947454E-01
 -1.442713150E+00 2.228531265E-02 6.969842172E+04 1.017294767E+02 1.303237130E-01
 -1.325395895E+00 2.033259383E-02 6.969895244E+04 1.017237111E+02 1.451796563E-01
 -1.217066581E+00 1.853144919E-02 6.969957134E+04 1.017169824E+02 1.612671184E-01
 -1.117062483E+00 1.687066827E-02 6.970029286E+04 1.017091318E+02 1.786989652E-01
 -1.024768452E+00 1.533984367E-02 6.970113380E+04 1.016999747E+02 1.975944524E-01
 -9.396135695E-01 1.392931383E-02 6.970211396E+04 1.016892977E+02 2.180821538E-01
 -8.610680287E-01 1.263010989E-02 6.970325651E+04 1.016768486E+02 2.403044781E-01
 -7.886402353E-01 1.143390614E-02 6.970458821E+04 1.016623326E+02 2.644104348E-01
 -7.218741079E-01 1.033297408E-02 6.970614019E+04 1.016454081E+02 2.905560059E-01
 -6.603465660E-01 9.320139633E-03 6.970794889E+04 1.016256761E+02 3.189114223E-01
 -6.036651938E-01 8.388743454E-03 6.971005663E+04 1.016026725E+02 3.496584561E-01
 -5.514660661E-01 7.532604122E-03 6.971251252E+04 1.015758582E+02 3.829896100E-01
 -5.034117259E-01 6.745984003E-03 6.971537351E+04 1.015446075E+02 4.191094350E-01
 -4.591893031E-01 6.023557642E-03 6.971870555E+04 1.015081948E+02 4.582351793E-01
 -4.185087647E-01 5.360382530E-03 6.972258497E+04 1.014657795E+02 5.005968511E-01
 -3.811012872E-01 4.751872091E-03 6.972709991E+04 1.014163892E+02 5.464375320E-01
 -3.467177433E-01 4.193770743E-03 6.973235206E+04 1.013589001E+02 5.960137627E-01
 -3.151272940E-01 3.682130898E-03 6.973845858E+04 1.012920145E+02 6.495958680E-01
 -2.861160800E-01 3.213291765E-03 6.974555431E+04 1.012142359E+02 7.074682561E-01
 -2.594860049E-01 2.783859808E-03 6.975379417E+04 1.011238395E+02 7.699296540E-01
 -2.350536037E-01 2.390690739E-03 6.976335601E+04 1.010188392E+02 8.372933217E-01
 -2.126489911E-01 2.030872891E-03 6.977444379E+04 1.008969483E+02 9.098872389E-01
 -1.921148838E-01 1.701711854E-03 6.978729124E+04 1.007555352E+02 9.880543147E-01
 -1.733056921E-01 1.400716225E-03 6.980216605E+04 1.005915701E+02 1.072152491E+00
 -1.560866749E-01 1.125584358E-03 6.981937481E+04 1.004015625E+02 1.162554784E+00
 -1.403331556E-01 8.741919697E-04 6.983926881E+04 1.001814869E+02 1.259651495E+00
 -1.259297920E-01 6.445805179E-04 6.986225063E+04 9.992668958E+01 1.363840520E+00
 -1.127698998E-01 4.349462220E-04 6.988878197E+04 9.963178828E+01 1.475533434E+00
 -1.007548220E-01 2.436296577E-04 6.991939403E+04 9.929052798E+01 1.595155434E+00
 -8.979334521E-02 6.910584670E-05 6.995470054E+04 9.889559603E+01 1.723122582E+00
 -7.980115595E-02 -9.002520933E-05 6.999541161E+04 9.843840715E+01 1.859846485E+00
 -7.070033643E-02 -2.350475956E-04 7.004235299E+04 9.790884488E+01 2.005703121E+00
 -6.241889610E-02 -3.671381661E-04 7.009648907E+04 9.729482361E+01 2.161016266E+00
 -5.489033674E-02 -4.873748302E-04 7.015895852E+04 9.658191996E+01 2.325967625E+00
 -4.805324860E-02 -5.967444421E-04 7.023109472E+04 9.575240742E+01 2.500647543E+00
 -4.185093556E-02 -6.961503050E-04 7.031446418E+04 9.478600978E+01 2.685601115E+00
 -3.623388306E-02 -7.543395159E-04 7.041072079E+04 9.365816952E+01 2.892100592E+00
 -3.116181067E-02 -6.590238893E-04 7.052193389E+04 9.233857079E+01 3.135624244E+00
 -2.657803764E-02 -5.730800843E-04 7.065108384E+04 9.078301499E+01 3.415134995E+00
 -2.244159384E-02 -4.957124755E-04 7.080206204E+04 8.893328676E+01 3.728638309E+00
 -1.871470726E-02 -4.261845563E-04 7.097940343E+04 8.670873034E+01 4.084608742E+00
 -1.536256527E-02 -3.638154391E-04 7.118959099E+04 8.400886265E+01 4.494597476E+00
 -1.235309315E-02 -3.079764852E-04 7.144005107E+04 8.065395459E+01 4.974024684E+00
 -9.656748722E-03 -2.580880508E-04 7.174424553E+04 7.644324950E+01 5.549827161E+00
 -7.246331879E-03 -2.136163318E-04 7.211213272E+04 7.086241446E+01 6.242734137E+00
 -5.096807969E-03 -1.740702813E-04 7.257356067E+04 6.349959285E+01 7.153617749E+00
 -3.185144071E-03 -1.389984947E-04 7.309522274E+04 5.277227342E+01 8.085077211E+00
 -1.490157217E-03 -1.079857018E-04 7.365634908E+04 3.955831852E+01 1.056456411E+01
 7.626351982E-06 -8.064715534E-05 7.395742552E+04 3.295264707E+01 1.264714410E+01
 -4.913313371E+00 2.489252871E-01 6.969545631E+04 1.017597740E+02 4.123919419E-03
 -4.537940942E+00 2.350961297E-01 6.969546954E+04 1.017596693E+02 6.272468983E-03
 -4.190257563E+00 2.222894928E-01 6.969549577E+04 1.017594761E+02 1.121915401E-02
 -3.868274817E+00 2.104319074E-01 6.969552297E+04 1.017592597E+02 1.709709391E-02
 -3.570144285E+00 1.994550844E-01 6.969556095E+04 1.017589208E+02 2.347388533E-02
 -3.293091211E+00 1.845566138E-01 6.969562100E+04 1.017583701E+02 3.029307840E-02
 -3.036420348E+00 1.700322887E-01 6.969570232E+04 1.017575920E+02 3.757387574E-02
 -2.798892993E+00 1.565935165E-01 6.969580220E+04 1.017566026E+02 4.534580088E-02
 -2.579123525E+00 1.441616825E-01 6.969592386E+04 1.017553669E+02 5.365562801E-02
 -2.375824456E+00 1.326637417E-01 6.969607114E+04 1.017538456E+02 6.256293780E-02
 -2.187799597E+00 1.220318305E-01 6.969624758E+04 1.017520002E+02 7.213165668E-02
 -2.013937692E+00 1.122029054E-01 6.969645762E+04 1.017497820E+02 8.243053380E-02
 -1.853206488E+00 1.031184068E-01 6.969670674E+04 1.017471324E+02 9.353486484E-02
 -1.704647217E+00 9.472394507E-02 6.969700128E+04 1.017439827E+02 1.055265363E-01
 -1.567369452E+00 8.696900852E-02 6.969734870E+04 1.017402518E+02 1.184942230E-01
 -1.440546329E+00 7.980669168E-02 6.969775777E+04 1.017358444E+02 1.325339493E-01
 -1.323410087E+00 7.319344191E-02 6.969823880E+04 1.017306483E+02 1.477497920E-01
 -1.215247923E+00 6.708882363E-02 6.969880390E+04 1.017245316E+02 1.642542092E-01
 -1.115398134E+00 6.145529878E-02 6.969946726E+04 1.017173400E+02 1.821687687E-01
 -1.023246518E+00 5.625802245E-02 6.970024541E+04 1.017088904E+02 2.016252850E-01
 -9.382230383E-01 5.146465265E-02 6.970115774E+04 1.016989706E+02 2.227638317E-01
 -8.597987054E-01 4.704517332E-02 6.970222706E+04 1.016873345E+02 2.457357151E-01
 -7.874826830E-01 4.297172959E-02 6.970347999E+04 1.016736919E+02 2.707093604E-01
 -7.208195929E-01 3.921847452E-02 6.970494737E+04 1.016577040E+02 2.978637473E-01
 -6.593870074E-01 3.576142660E-02 6.970666517E+04 1.016389758E+02 3.273864385E-01
 -6.027931159E-01 3.257833725E-02 6.970867538E+04 1.016170464E+02 3.594813356E-01
 -5.506745546E-01 2.964856758E-02 6.971102679E+04 1.015913799E+02 3.943691980E-01
 -5.026943869E-01 2.695297396E-02 6.971377603E+04 1.015613544E+02 4.322855905E-01
 -4.585402256E-01 2.447380164E-02 6.971698870E+04 1.015262475E+02 4.734820659E-01
 -4.179224848E-01 2.219458604E-02 6.972074080E+04 1.014852223E+02 5.182275713E-01
 -3.805727559E-01 2.010006104E-02 6.972512012E+04 1.014373094E+02 5.668090337E-01
 -3.462422957E-01 1.817607396E-02 6.973022802E+04 1.013813884E+02 6.195321201E-01
 -3.147006213E-01 1.640950661E-02 6.973618132E+04 1.013161647E+02 6.767221387E-01
 -2.857342034E-01 1.478820212E-02 6.974311448E+04 1.012401449E+02 7.387248948E-01
 -2.591452508E-01 1.330089710E-02 6.975118208E+04 1.011516072E+02 8.059075753E-01