TITLE     = "fluent22.1.0  build-id: 10213"
VARIABLES = "X"
"Y"
"Pressure"
"X Velocity"
"Y Velocity"
DATASETAUXDATA Common.DensityVar="23"
DATASETAUXDATA Common.PressureVar="3"
DATASETAUXDATA Common.TemperatureVar="12"
DATASETAUXDATA Common.TurbulentDynamicViscosityVar="17"
DATASETAUXDATA Common.UVar="5"
DATASETAUXDATA Common.VectorVarsAreVelocity="TRUE"
DATASETAUXDATA Common.ViscosityVar="25"
DATASETAUXDATA Common.VVar="7"
ZONE T="fluid"
 STRANDID=1, SOLUTIONTIME=0.4725
 Nodes=10240, Elements=10080, ZONETYPE=FEQuadrilateral
 DATAPACKING=POINT
 DT=(DOUBLE DOUBLE DOUBLE DOUBLE DOUBLE )
 -4.856290020E+00 -7.872354469E-01 6.969684923E+04 1.017543438E+02 3.204026473E-03
 -4.486951071E+00 -7.102954553E-01 6.969691686E+04 1.017534417E+02 5.488811858E-03
 -4.884823481E+00 -5.813004056E-01 6.969657118E+04 1.017554022E+02 3.613517811E-03
 -4.512964826E+00 -5.224159977E-01 6.969662708E+04 1.017546654E+02 5.928500864E-03
 -4.144856016E+00 -6.390280267E-01 6.969703950E+04 1.017517018E+02 1.077997368E-02
 -4.168535947E+00 -4.678723531E-01 6.969672940E+04 1.017532415E+02 1.127676271E-02
 -3.828048413E+00 -5.730258913E-01 6.969714300E+04 1.017500191E+02 1.709883662E-02
 -3.849567052E+00 -4.173578210E-01 6.969681682E+04 1.017518576E+02 1.765140232E-02
 -3.534709565E+00 -5.119104193E-01 6.969725868E+04 1.017482258E+02 2.393746549E-02
 -3.554227035E+00 -3.705826808E-01 6.969691578E+04 1.017503652E+02 2.455736238E-02
 -3.260632335E+00 -4.696533744E-01 6.969741829E+04 1.017461126E+02 3.118180462E-02
 -3.278589542E+00 -3.396828886E-01 6.969705511E+04 1.017485695E+02 3.189394439E-02
 -3.006468887E+00 -4.332731990E-01 6.969761589E+04 1.017436627E+02 3.884579696E-02
 -3.023031035E+00 -3.134166296E-01 6.969722988E+04 1.017464529E+02 3.967389152E-02
 -2.771261873E+00 -3.996038726E-01 6.969783987E+04 1.017409542E+02 4.698798055E-02
 -2.786533020E+00 -2.891068885E-01 6.969742943E+04 1.017440882E+02 4.794795690E-02
 -2.553639216E+00 -3.684492291E-01 6.969809505E+04 1.017379303E+02 5.565462962E-02
 -2.567715888E+00 -2.666120975E-01 6.969765831E+04 1.017414217E+02 5.676314448E-02
 -2.352326013E+00 -3.396269935E-01 6.969838705E+04 1.017345308E+02 6.489624566E-02
 -2.365297738E+00 -2.458007136E-01 6.969792199E+04 1.017383952E+02 6.617283519E-02
 -2.166137769E+00 -3.129678140E-01 6.969871990E+04 1.017307065E+02 7.476897796E-02
 -2.178087570E+00 -2.265505192E-01 6.969822435E+04 1.017349619E+02 7.623604306E-02
 -1.993974088E+00 -2.883143609E-01 6.969909909E+04 1.017263946E+02 8.533268947E-02
 -2.004978949E+00 -2.087479726E-01 6.969857065E+04 1.017310617E+02 8.701584007E-02
 -1.834812807E+00 -2.655204877E-01 6.969953120E+04 1.017215215E+02 9.665111923E-02
 -1.844944100E+00 -1.922876021E-01 6.969896733E+04 1.017266236E+02 9.857973212E-02
 -1.687704528E+00 -2.444504497E-01 6.970002365E+04 1.017160054E+02 1.087921289E-01
 -1.697028412E+00 -1.770714428E-01 6.969942161E+04 1.017215674E+02 1.110001344E-01
 -1.551767528E+00 -2.249781777E-01 6.970058491E+04 1.017097513E+02 1.218281785E-01
 -1.560345324E+00 -1.630085119E-01 6.969994183E+04 1.017158007E+02 1.243540357E-01
 -1.426183024E+00 -2.069866002E-01 6.970122482E+04 1.017026505E+02 1.358350455E-01
 -1.434071556E+00 -1.500143201E-01 6.970053766E+04 1.017092168E+02 1.387235001E-01
 -1.310190756E+00 -1.903670140E-01 6.970195481E+04 1.016945780E+02 1.508923865E-01
 -1.317442676E+00 -1.380104175E-01 6.970122035E+04 1.017016921E+02 1.541954547E-01
 -1.203084889E+00 -1.750184974E-01 6.970278808E+04 1.016853882E+02 1.670846420E-01
 -1.209748975E+00 -1.269239703E-01 6.970200293E+04 1.016930835E+02 1.708613260E-01
 -1.104210185E+00 -1.608473646E-01 6.970373990E+04 1.016749130E+02 1.845006249E-01
 -1.110331616E+00 -1.166873669E-01 6.970290055E+04 1.016832259E+02 1.888178905E-01
 -1.012958444E+00 -1.477666576E-01 6.970482795E+04 1.016629581E+02 2.032319148E-01
 -1.018579063E+00 -1.072378517E-01 6.970393081E+04 1.016719258E+02 2.081689900E-01
 -9.287652007E-01 -1.356956730E-01 6.970607271E+04 1.016492986E+02 2.233727543E-01
 -9.339237506E-01 -9.851718381E-02 6.970511410E+04 1.016589591E+02 2.290220311E-01
 -8.511066330E-01 -1.245595225E-01 6.970749799E+04 1.016336736E+02 2.450216556E-01
 -8.558389818E-01 -9.047131976E-02 6.970647405E+04 1.016440667E+02 2.514873652E-01
 -7.794967011E-01 -1.142887232E-01 6.970913135E+04 1.016157807E+02 2.682799989E-01
 -7.838360491E-01 -8.305011794E-02 6.970803815E+04 1.016269473E+02 2.756822291E-01
 -7.134844763E-01 -1.048188162E-01 6.971100474E+04 1.015952694E+02 2.932511434E-01
 -7.174615484E-01 -7.620706374E-02 6.970983830E+04 1.016072508E+02 3.017286476E-01
 -6.526516581E-01 -9.609001228E-02 6.971315518E+04 1.015717335E+02 3.200402026E-01
 -6.562948833E-01 -6.989901359E-02 6.971191149E+04 1.015845716E+02 3.297522375E-01
 -5.966102641E-01 -8.804686153E-02 6.971562553E+04 1.015447024E+02 3.487533531E-01
 -5.999459419E-01 -6.408595682E-02 6.971430057E+04 1.015584389E+02 3.598824236E-01
 -5.450004808E-01 -8.063794625E-02 6.971846542E+04 1.015136311E+02 3.794969241E-01
 -5.480529355E-01 -5.873079391E-02 6.971705519E+04 1.015283076E+02 3.922521491E-01
 -4.974886636E-01 -7.381559501E-02 6.972173220E+04 1.014778891E+02 4.123763984E-01
 -5.002803884E-01 -5.379913014E-02 6.972023275E+04 1.014935464E+02 4.269970708E-01
 -4.537654773E-01 -6.753561643E-02 6.972549217E+04 1.014367469E+02 4.474952440E-01
 -4.563172674E-01 -4.925908340E-02 6.972389966E+04 1.014534245E+02 4.642547134E-01
 -4.135441656E-01 -6.175705153E-02 6.972982188E+04 1.013893614E+02 4.849536952E-01
 -4.158752424E-01 -4.508110529E-02 6.972813258E+04 1.014070973E+02 5.041637053E-01
 -3.765589426E-01 -5.644194301E-02 6.973480964E+04 1.013347585E+02 5.248475117E-01
 -3.786870683E-01 -4.123781456E-02 6.973301998E+04 1.013535885E+02 5.468629209E-01
 -3.425634956E-01 -5.155512063E-02 6.974055722E+04 1.012718141E+02 5.672663759E-01
 -3.445050805E-01 -3.770384190E-02 6.973866381E+04 1.012917713E+02 5.924903346E-01
 -3.113295940E-01 -4.706400126E-02 6.974718178E+04 1.011992311E+02 6.122920896E-01
 -3.130997959E-01 -3.445568551E-02 6.974518148E+04 1.012203457E+02 6.411818152E-01
 -2.826457954E-01 -4.293840287E-02 6.975481808E+04 1.011155146E+02 6.599967224E-01
 -2.842586109E-01 -3.147157645E-02 6.975270801E+04 1.011378132E+02 6.930698488E-01
 -2.563162419E-01 -3.915037125E-02 6.976362092E+04 1.010189429E+02 7.104404464E-01
 -2.577845928E-01 -2.873135338E-02 6.976139848E+04 1.010424476E+02 7.482819568E-01
 -2.321595419E-01 -3.567401878E-02 6.977376796E+04 1.009075333E+02 7.636688900E-01
 -2.334953541E-01 -2.621634581E-02 6.977143091E+04 1.009322619E+02 8.069388263E-01
 -2.100077304E-01 -3.248537442E-02 6.978546297E+04 1.007790040E+02 8.197102075E-01
 -2.112220076E-01 -2.390926550E-02 6.978300942E+04 1.008049684E+02 8.691520100E-01
 -1.897053019E-01 -2.956224410E-02 6.979893950E+04 1.006307284E+02 8.785718627E-01
 -1.908081942E-01 -2.179410538E-02 6.979636797E+04 1.006579347E+02 9.350215970E-01
 -1.711083124E-01 -2.688408095E-02 6.981446504E+04 1.004596826E+02 9.402349476E-01
 -1.721091794E-01 -1.985604555E-02 6.981177453E+04 1.004881295E+02 1.004632493E+00
 -1.540835442E-01 -2.443186469E-02 6.983234609E+04 1.002623825E+02 1.004648131E+00
 -1.549910142E-01 -1.808136592E-02 6.982953612E+04 1.002920611E+02 1.078049032E+00
 -1.385077299E-01 -2.218798961E-02 6.985293382E+04 1.000348088E+02 1.071724769E+00
 -1.393297542E-01 -1.645736516E-02 6.985000456E+04 1.000656992E+02 1.155314141E+00
 -1.242668317E-01 -2.013616066E-02 6.987663064E+04 9.977231995E+01 1.141320205E+00
 -1.250107355E-01 -1.497228543E-02 6.987358310E+04 9.980439183E+01 1.236429333E+00
 -1.112553709E-01 -1.826129703E-02 6.990389780E+04 9.946954920E+01 1.213227703E+00
 -1.119279003E-01 -1.361524271E-02 6.990073391E+04 9.950275795E+01 1.321352525E+00
 -9.937580607E-02 -1.654944289E-02 6.993526576E+04 9.912025745E+01 1.287162427E+00
 -9.998317151E-02 -1.237616230E-02 6.993198875E+04 9.915453547E+01 1.409987740E+00
 -8.853795473E-02 -1.498768472E-02 6.997134737E+04 9.871715574E+01 1.362715199E+00
 -8.908587145E-02 -1.124571916E-02 6.996796235E+04 9.875240782E+01 1.502145847E+00
 -7.865845624E-02 -1.356407490E-02 7.001285160E+04 9.825169056E+01 1.439317035E+00
 -7.915218182E-02 -1.021528280E-02 7.000936553E+04 9.828779599E+01 1.597515488E+00
 -6.966027319E-02 -1.226756087E-02 7.006059996E+04 9.771380142E+01 1.516138647E+00
 -7.010464228E-02 -9.276866431E-03 7.005702345E+04 9.775059837E+01 1.695597862E+00
 -6.147222824E-02 -1.108791997E-02 7.011554850E+04 9.709155040E+01 1.592040197E+00
 -6.187168479E-02 -8.423080059E-03 7.011189982E+04 9.712876522E+01 1.795656667E+00
 -5.402857413E-02 -1.001569900E-02 7.017882402E+04 9.637065546E+01 1.665457102E+00
 -5.438720123E-02 -7.647087157E-03 7.017512962E+04 9.640791280E+01 1.896573712E+00
 -4.726859440E-02 -9.042158262E-03 7.025175029E+04 9.553369385E+01 1.734330259E+00
 -4.759014191E-02 -6.942564642E-03 7.024804297E+04 9.557045924E+01 1.996796638E+00
 -4.113623276E-02 -8.159220015E-03 7.033588626E+04 9.456022034E+01 1.797183712E+00
 -4.142414299E-02 -6.303665978E-03 7.033220003E+04 9.459605302E+01 2.095426376E+00
 -3.558796704E-02 -7.310951255E-03 7.043301419E+04 9.342436934E+01 1.867225674E+00
 -3.584405182E-02 -5.680600754E-03 7.042931373E+04 9.345955527E+01 2.205392238E+00
 -3.060321528E-02 -6.330266530E-03 7.054540041E+04 9.209381427E+01 1.962708026E+00
 -3.082422827E-02 -4.920000965E-03 7.054158256E+04 9.212928368E+01 2.344611549E+00
 -2.609835950E-02 -5.444218657E-03 7.067596818E+04 9.052455063E+01 2.076318956E+00
 -2.628767659E-02 -4.232847178E-03 7.067197822E+04 9.056091559E+01 2.507483432E+00
 -2.203313447E-02 -4.644855531E-03 7.082855199E+04 8.866005200E+01 2.199675569E+00
 -2.219384834E-02 -3.612965855E-03 7.082435830E+04 8.869710179E+01 2.687217190E+00
 -1.837041799E-02 -3.924842554E-03 7.100765405E+04 8.641881932E+01 2.332600635E+00
 -1.850536021E-02 -3.054662078E-03 7.100325992E+04 8.645663238E+01 2.885941020E+00
 -1.507599623E-02 -3.277417600E-03 7.121999534E+04 8.370019410E+01 2.485721464E+00
 -1.518775777E-02 -2.552684880E-03 7.121530833E+04 8.373826411E+01 3.115107561E+00
 -1.211834617E-02 -2.696349073E-03 7.147273589E+04 8.032349790E+01 2.646561130E+00
 -1.220929632E-02 -2.102194914E-03 7.146783697E+04 8.036209775E+01 3.369074522E+00
 -9.468433743E-03 -2.175896862E-03 7.178012418E+04 7.608613175E+01 2.862536025E+00
 -9.540737585E-03 -1.698734323E-03 7.177470894E+04 7.612372682E+01 3.692517310E+00
 -7.099526675E-03 -1.710775965E-03 7.215071266E+04 7.048052675E+01 3.042562592E+00
 -7.155161307E-03 -1.338198635E-03 7.214528499E+04 7.051592874E+01 4.020161833E+00
 -4.987020922E-03 -1.296122579E-03 7.261658906E+04 6.309076166E+01 3.462363092E+00
 -5.027790401E-03 -1.016810532E-03 7.260999802E+04 6.312062474E+01 4.588107998E+00
 -3.108279769E-03 -9.274623477E-04 7.313833694E+04 5.239052872E+01 3.486843113E+00
 -3.135828944E-03 -7.310952145E-04 7.313298363E+04 5.239684471E+01 4.904040131E+00
 -1.442484653E-03 -6.006803777E-04 7.370633979E+04 3.912477846E+01 5.661615577E+00
 -1.458311945E-03 -4.778569953E-04 7.369705347E+04 3.915927013E+01 7.163651304E+00
 2.950318352E-05 -3.119902977E-04 7.401812615E+04 3.242353416E+01 8.192035651E+00
 2.403397564E-05 -2.541545121E-04 7.400200513E+04 3.250456285E+01 9.542573364E+00
 -4.904860300E+00 -3.743658139E-01 6.969628775E+04 1.017564963E+02 3.977235743E-03
 -4.531133288E+00 -3.336136701E-01 6.969633254E+04 1.017559214E+02 6.319638039E-03
 -4.184973889E+00 -2.958648223E-01 6.969641543E+04 1.017548116E+02 1.171952508E-02
 -3.864402409E+00 -2.609036534E-01 6.969648752E+04 1.017537280E+02 1.814289529E-02
 -3.567578541E+00 -2.285297247E-01 6.969657056E+04 1.017525365E+02 2.510508845E-02
 -3.290859486E+00 -2.090442744E-01 6.969668967E+04 1.017510615E+02 3.252187321E-02
 -3.034349193E+00 -1.929440698E-01 6.969684107E+04 1.017492845E+02 4.040779859E-02
 -2.796970391E+00 -1.780421614E-01 6.969701569E+04 1.017472679E+02 4.880406641E-02
 -2.577338328E+00 -1.642518618E-01 6.969721772E+04 1.017449626E+02 5.775767239E-02
 -2.374166330E+00 -1.514926213E-01 6.969745238E+04 1.017423141E+02 6.732514315E-02
 -2.186258960E+00 -1.396896001E-01 6.969772345E+04 1.017392777E+02 7.756804534E-02
 -2.012505660E+00 -1.287732701E-01 6.969803596E+04 1.017357965E+02 8.855234278E-02
 -1.851874827E+00 -1.186790445E-01 6.969839614E+04 1.017318022E+02 1.003493368E-01
 -1.703408295E+00 -1.093469326E-01 6.969881105E+04 1.017272174E+02 1.130358207E-01
 -1.566216199E+00 -1.007212191E-01 6.969928879E+04 1.017219525E+02 1.266939748E-01
 -1.439472192E+00 -9.275016480E-02 6.969983889E+04 1.017159034E+02 1.414115895E-01
 -1.322408997E+00 -8.538572906E-02 6.970047239E+04 1.017089481E+02 1.572826669E-01
 -1.214314258E+00 -7.858331047E-02 6.970120212E+04 1.017009453E+02 1.744072662E-01
 -1.114526686E+00 -7.230150620E-02 6.970204301E+04 1.016917320E+02 1.928906870E-01
 -1.022432468E+00 -6.650188774E-02 6.970301244E+04 1.016811186E+02 2.128449984E-01
 -9.374619223E-01 -6.114879228E-02 6.970413075E+04 1.016688828E+02 2.343921496E-01
 -8.590863919E-01 -5.620912849E-02 6.970542145E+04 1.016547660E+02 2.576584494E-01
 -7.868153484E-01 -5.165219582E-02 6.970691176E+04 1.016384697E+02 2.827744598E-01
 -7.201936993E-01 -4.744951626E-02 6.970863341E+04 1.016196454E+02 3.098803955E-01
 -6.587992816E-01 -4.357467774E-02 6.971062333E+04 1.015978883E+02 3.391235684E-01
 -6.022405303E-01 -4.000318834E-02 6.971292426E+04 1.015727291E+02 3.706571454E-01
 -5.501543096E-01 -3.671234056E-02 6.971558575E+04 1.015436234E+02 4.046408450E-01
 -5.022038941E-01 -3.368108484E-02 6.971866515E+04 1.015099405E+02 4.412409941E-01
 -4.580770923E-01 -3.088991187E-02 6.972222882E+04 1.014709499E+02 4.806298666E-01
 -4.174845002E-01 -2.832074283E-02 6.972635341E+04 1.014258065E+02 5.229852264E-01
 -3.801578775E-01 -2.595682716E-02 6.973112740E+04 1.013735339E+02 5.684899650E-01
 -3.458486371E-01 -2.378264726E-02 6.973665278E+04 1.013130044E+02 6.173315144E-01
 -3.143264410E-01 -2.178382966E-02 6.974304701E+04 1.012429166E+02 6.697012272E-01
 -2.853778939E-01 -1.994706224E-02 6.975044517E+04 1.011617706E+02 7.257937253E-01
 -2.588053294E-01 -1.826001698E-02 6.975900246E+04 1.010678382E+02 7.858059936E-01
 -2.344256807E-01 -1.671127807E-02 6.976889698E+04 1.009591298E+02 8.499363181E-01
 -2.120694314E-01 -1.529027488E-02 6.978033301E+04 1.008333553E+02 9.183830247E-01
 -1.915796397E-01 -1.398721956E-02 6.979354460E+04 1.006878790E+02 9.913430152E-01
 -1.728110321E-01 -1.279304903E-02 6.980879988E+04 1.005196660E+02 1.069009747E+00
 -1.556291602E-01 -1.169937104E-02 6.982640601E+04 1.003252207E+02 1.151570010E+00
 -1.399096181E-01 -1.069841414E-02 6.984671497E+04 1.001005073E+02 1.239203783E+00
 -1.255373143E-01 -9.782981310E-03 6.987013028E+04 9.984086813E+01 1.332070200E+00
 -1.124057960E-01 -8.946407113E-03 6.989711440E+04 9.954091404E+01 1.430305976E+00
 -1.004166206E-01 -8.182518054E-03 6.992819954E+04 9.919437125E+01 1.534018476E+00
 -8.947877243E-02 -7.485596079E-03 6.996400111E+04 9.879391019E+01 1.643257083E+00
 -7.950812103E-02 -6.850344950E-03 7.000523102E+04 9.833093137E+01 1.757992262E+00
 -7.042691745E-02 -6.271859319E-03 7.005271629E+04 9.779530489E+01 1.878069143E+00
 -6.216332706E-02 -5.745596320E-03 7.010742306E+04 9.717493379E+01 2.003173483E+00
 -5.465099554E-02 -5.267349440E-03 7.017049081E+04 9.645537673E+01 2.132697846E+00
 -4.782864589E-02 -4.833224457E-03 7.024325414E+04 9.561893880E+01 2.265714219E+00
 -4.163970441E-02 -4.439617334E-03 7.032727678E+04 9.464530714E+01 2.401878538E+00
 -3.603747526E-02 -4.042900127E-03 7.042423428E+04 9.350968148E+01 2.553489003E+00
 -3.099134935E-02 -3.503411765E-03 7.053625110E+04 9.218114300E+01 2.737898412E+00
 -2.643102697E-02 -3.016080462E-03 7.066631656E+04 9.061533190E+01 2.951488399E+00
 -2.231574732E-02 -2.576519313E-03 7.081831824E+04 8.875409780E+01 3.189277142E+00
 -1.860793130E-02 -2.180680553E-03 7.099680981E+04 8.651655785E+01 3.455794406E+00
 -1.527294403E-02 -1.824831269E-03 7.120833066E+04 8.380117749E+01 3.763127393E+00
 -1.227887456E-02 -1.505530733E-03 7.146033332E+04 8.042869077E+01 4.113336256E+00
 -9.596331525E-03 -1.219609228E-03 7.176636607E+04 7.619380830E+01 4.546420705E+00
 -7.198253682E-03 -9.641482475E-04 7.213639940E+04 7.058883842E+01 5.029780883E+00
 -5.059734189E-03 -7.364619753E-04 7.259965347E+04 6.319344827E+01 5.748204761E+00
 -3.157857737E-03 -5.340797991E-04 7.312263784E+04 5.246745678E+01 6.363823405E+00
 -1.471549528E-03 -3.547295104E-04 7.368253400E+04 3.926335472E+01 8.775938318E+00
 1.856476775E-05 -1.963187265E-04 7.398175951E+04 3.264252664E+01 1.105709989E+01
 -4.916318661E+00 -1.667794339E-01 6.969600229E+04 1.017576145E+02 4.254289951E-03
 -4.541380911E+00 -1.442095783E-01 6.969603591E+04 1.017572038E+02 6.620494252E-03
 -4.194100100E+00 -1.233018503E-01 6.969609890E+04 1.017564134E+02 1.207136313E-02
 -3.872490119E+00 -1.039369357E-01 6.969615511E+04 1.017556327E+02 1.855245008E-02
 -3.574704695E+00 -8.600392368E-02 6.969622201E+04 1.017547406E+02 2.558193830E-02
 -3.297387439E+00 -7.797031214E-02 6.969632061E+04 1.017535861E+02 3.308444154E-02
 -3.040372901E+00 -7.207015628E-02 6.969644817E+04 1.017521509E+02 4.107538266E-02
 -2.802527471E+00 -6.660753773E-02 6.969659736E+04 1.017504858E+02 4.959014051E-02
 -2.582463676E+00 -6.155083320E-02 6.969677202E+04 1.017485464E+02 5.867669678E-02
 -2.378892308E+00 -5.687065724E-02 6.969697699E+04 1.017462826E+02 6.839482835E-02
 -2.190615582E+00 -5.253970620E-02 6.969721597E+04 1.017436519E+02 7.880912670E-02
 -2.016520755E+00 -4.853261309E-02 6.969749377E+04 1.017406002E+02 8.998878463E-02
 -1.855574194E+00 -4.482581258E-02 6.969781640E+04 1.017370622E+02 1.020089949E-01
 -1.706815850E+00 -4.139741542E-02 6.969819069E+04 1.017329631E+02 1.149510194E-01
 -1.569354107E+00 -3.822709161E-02 6.969862454E+04 1.017282162E+02 1.289021662E-01
 -1.442360994E+00 -3.529596173E-02 6.969912724E+04 1.017227199E+02 1.439563990E-01
 -1.325067725E+00 -3.258649581E-02 6.969970961E+04 1.017163557E+02 1.602142426E-01
 -1.216760544E+00 -3.008241933E-02 6.970038430E+04 1.017089852E+02 1.777835547E-01
 -1.116776861E+00 -2.776862569E-02 6.970116599E+04 1.017004463E+02 1.967802511E-01
 -1.024501655E+00 -2.563109476E-02 6.970207177E+04 1.016905511E+02 2.173264351E-01
 -9.393641251E-01 -2.365681719E-02 6.970312170E+04 1.016790823E+02 2.395521721E-01
 -8.608345756E-01 -2.183372381E-02 6.970433923E+04 1.016657847E+02 2.636003141E-01
 -7.884215133E-01 -2.015062003E-02 6.970575138E+04 1.016503599E+02 2.896211507E-01
 -7.216689509E-01 -1.859712469E-02 6.970738957E+04 1.016324632E+02 3.177702126E-01
 -6.601538955E-01 -1.716361310E-02 6.970929049E+04 1.016116920E+02 3.482143406E-01
 -6.034840125E-01 -1.584116399E-02 6.971149676E+04 1.015875786E+02 3.811312267E-01
 -5.512954520E-01 -1.462150996E-02 6.971405772E+04 1.015595808E+02 4.167078309E-01
 -5.032508269E-01 -1.349699133E-02 6.971703054E+04 1.015270696E+02 4.551407529E-01
 -4.590373318E-01 -1.246051304E-02 6.972048145E+04 1.014893159E+02 4.966367069E-01
 -4.183649939E-01 -1.150550430E-02 6.972448696E+04 1.014454760E+02 5.414123728E-01
 -3.809650455E-01 -1.062588097E-02 6.972913544E+04 1.013945742E+02 5.896943444E-01
 -3.465884109E-01 -9.816010299E-03 6.973452876E+04 1.013354837E+02 6.417191211E-01
 -3.150042991E-01 -9.070677962E-03 6.974078429E+04 1.012669037E+02 6.977330593E-01
 -2.859988955E-01 -8.385057163E-03 6.974803703E+04 1.011873344E+02 7.579922887E-01
 -2.593741447E-01 -7.754679751E-03 6.975644208E+04 1.010950478E+02 8.227624957E-01
 -2.349466200E-01 -7.175409171E-03 6.976617748E+04 1.009880540E+02 8.923186522E-01
 -2.125464716E-01 -6.643415199E-03 6.977744739E+04 1.008640626E+02 9.669446526E-01
 -1.920164491E-01 -6.155150352E-03 6.979048577E+04 1.007204375E+02 1.046932927E+00
 -1.732109930E-01 -5.707327923E-03 6.980556062E+04 1.005541436E+02 1.132583756E+00
 -1.559953907E-01 -5.296901588E-03 6.982297889E+04 1.003616842E+02 1.224204177E+00
 -1.402449912E-01 -4.921046525E-03 6.984309235E+04 1.001390245E+02 1.322108703E+00
 -1.258444768E-01 -4.577141999E-03 6.986630423E+04 9.988150361E+01 1.426609385E+00
 -1.126871850E-01 -4.262755380E-03 6.989307683E+04 9.958372983E+01 1.538019895E+00
 -1.006744796E-01 -3.975627517E-03 6.992394212E+04 9.923943086E+01 1.656647001E+00
 -8.971516588E-02 -3.713659430E-03 6.995951517E+04 9.884127515E+01 1.782773030E+00
 -7.972494786E-02 -3.474900236E-03 7.000050762E+04 9.838065684E+01 1.916646400E+00
 -7.062592366E-02 -3.257536240E-03 7.004774668E+04 9.784743615E+01 2.058445111E+00
 -6.234611740E-02 -3.059881099E-03 7.010219885E+04 9.722949704E+01 2.208251079E+00
 -5.481904431E-02 -2.880366943E-03 7.016500516E+04 9.651237750E+01 2.365944295E+00
 -4.798330697E-02 -2.717536336E-03 7.023750126E+04 9.567831558E+01 2.531220329E+00
 -4.178222057E-02 -2.570035030E-03 7.032125190E+04 9.470705758E+01 2.704317112E+00
 -3.616763471E-02 -2.400413858E-03 7.041790452E+04 9.357401259E+01 2.897303718E+00
 -3.110406019E-02 -2.082704549E-03 7.052952943E+04 9.224878434E+01 3.126823886E+00
 -2.652796857E-02 -1.795799785E-03 7.065912250E+04 9.068705778E+01 3.390767544E+00
 -2.239845814E-02 -1.537104491E-03 7.081058561E+04 8.883023051E+01 3.686082905E+00
 -1.867781994E-02 -1.304222844E-03 7.098846985E+04 8.659769567E+01 4.019932097E+00
 -1.533129942E-02 -1.094944426E-03 7.119924862E+04 8.388798816E+01 4.404794686E+00
 -1.232687537E-02 -9.072312317E-04 7.145041915E+04 8.052221625E+01 4.851077043E+00
 -9.635054874E-03 -7.392054749E-04 7.175533251E+04 7.629525716E+01 5.392679979E+00
 -7.228683189E-03 -5.891381291E-04 7.212424210E+04 7.069881729E+01 6.032039635E+00
 -5.082767417E-03 -4.554381263E-04 7.258582223E+04 6.330856382E+01 6.903737723E+00
 -3.174313061E-03 -3.366420437E-04 7.310764427E+04 5.258741636E+01 7.805160441E+00
 -1.482172498E-03 -2.314039171E-04 7.366340984E+04 3.942209431E+01 1.037586709E+01
 1.309555987E-05 -1.384829409E-04 7.395840486E+04 3.283595328E+01 1.258033394E+01
 -4.919121367E+00 4.110405248E-02 6.969571429E+04 1.017587515E+02 4.471358897E-03
 -4.543636412E+00 4.546877854E-02 6.969573671E+04 1.017585053E+02 6.862143462E-03
 -4.195848776E+00 4.951424846E-02 6.969577952E+04 1.017580364E+02 1.236651811E-02
 -3.873769451E+00 5.326334027E-02 6.969581961E+04 1.017575610E+02 1.890638860E-02
 -3.575549466E+00 5.673732568E-02 6.969587035E+04 1.017569703E+02 2.599883691E-02
 -3.298121768E+00 5.330158697E-02 6.969594818E+04 1.017561413E+02 3.357715868E-02
 -3.041054549E+00 4.898620421E-02 6.969605136E+04 1.017550558E+02 4.166077944E-02
 -2.803160376E+00 4.499520011E-02 6.969617454E+04 1.017537504E+02 5.028236701E-02
 -2.583051492E+00 4.130504999E-02 6.969632122E+04 1.017521854E+02 5.949092747E-02
 -2.379438422E+00 3.789389708E-02 6.969649579E+04 1.017503156E+02 6.934897022E-02
 -2.191123134E+00 3.474143648E-02 6.969670185E+04 1.017481008E+02 7.992379783E-02
 -2.016992657E+00 3.182880693E-02 6.969694401E+04 1.017454900E+02 9.128762667E-02
 -1.856013145E+00 2.913848983E-02 6.969722800E+04 1.017424210E+02 1.035193886E-01
 -1.707224350E+00 2.665421519E-02 6.969756041E+04 1.017388221E+02 1.167047381E-01
 -1.569734475E+00 2.436087385E-02 6.969794893E+04 1.017346095E+02 1.309361348E-01
 -1.442715378E+00 2.224443575E-02 6.969840256E+04 1.017296846E+02 1.463133475E-01
 -1.325398114E+00 2.029187373E-02 6.969893189E+04 1.017239321E+02 1.629440519E-01
 -1.217068780E+00 1.849109252E-02 6.969954927E+04 1.017172167E+02 1.809440890E-01
 -1.117064652E+00 1.683086266E-02 6.970026917E+04 1.017093810E+02 2.004380664E-01
 -1.024770581E+00 1.530075887E-02 6.970110843E+04 1.017002383E+02 2.215602981E-01
 -9.396156498E-01 1.389110278E-02 6.970208672E+04 1.016895734E+02 2.444529402E-01
 -8.610700532E-01 1.259290955E-02 6.970322714E+04 1.016771351E+02 2.692686347E-01
 -7.886421976E-01 1.139783827E-02 6.970455658E+04 1.016626296E+02 2.961748785E-01
 -7.218760022E-01 1.029814583E-02 6.970610625E+04 1.016457151E+02 3.253505062E-01
 -6.603483872E-01 9.286644086E-03 6.970791246E+04 1.016259918E+02 3.569818095E-01
 -6.036669376E-01 8.356660064E-03 6.971001749E+04 1.016029954E+02 3.912676183E-01
 -5.514677291E-01 7.501999088E-03 6.971247044E+04 1.015761862E+02 4.284229183E-01
 -5.034133051E-01 6.716910589E-03 6.971532823E+04 1.015449378E+02 4.686756823E-01
 -4.591907965E-01 5.996056470E-03 6.971865680E+04 1.015085239E+02 5.122670892E-01
 -4.185101707E-01 5.334481864E-03 6.972253244E+04 1.014661033E+02 5.594529070E-01
 -3.811026052E-01 4.727588131E-03 6.972704325E+04 1.014167026E+02 6.105038460E-01
 -3.467189730E-01 4.171107945E-03 6.973229088E+04 1.013591971E+02 6.657058670E-01
 -3.151284358E-01 3.661082352E-03 6.973839245E+04 1.012922879E+02 7.253607290E-01
 -2.861171351E-01 3.193839631E-03 6.974548270E+04 1.012144773E+02 7.897865110E-01
 -2.594869749E-01 2.765975839E-03 6.975371649E+04 1.011240388E+02 8.593180746E-01
 -2.350544907E-01 2.374336891E-03 6.976327161E+04 1.010189845E+02 9.343075733E-01
 -2.126497977E-01 2.016002037E-03 6.977435190E+04 1.008970256E+02 1.015125034E+00
 -1.921156131E-01 1.688268598E-03 6.978719100E+04 1.007555278E+02 1.102159020E+00
 -1.733063475E-01 1.388637814E-03 6.980205649E+04 1.005914584E+02 1.195817396E+00
 -1.560872603E-01 1.114801683E-03 6.981925483E+04 1.004013231E+02 1.296527858E+00
 -1.403336749E-01 8.646306466E-04 6.983913719E+04 1.001810918E+02 1.404741837E+00
 -1.259302497E-01 6.361620212E-04 6.986210605E+04 9.992610485E+01 1.520925111E+00
 -1.127703000E-01 4.275890559E-04 6.988862297E+04 9.963097405E+01 1.645566696E+00
 -1.007551694E-01 2.372505353E-04 6.991921901E+04 9.928943582E+01 1.779176289E+00
 -8.979364431E-02 6.362085036E-05 6.995450792E+04 9.889416594E+01 1.922273709E+00
 -7.980141123E-02 -9.469951404E-05 6.999519979E+04 9.843656553E+01 2.075387846E+00
 -7.070055228E-02 -2.389931194E-04 7.004212043E+04 9.790650189E+01 2.239027502E+00
 -6.241907678E-02 -3.704343527E-04 7.009623453E+04 9.729186232E+01 2.413685489E+00
 -5.489048634E-02 -4.900978287E-04 7.015868148E+04 9.657819855E+01 2.599739640E+00
 -4.805337099E-02 -5.989664074E-04 7.023079416E+04 9.574773034E+01 2.797513974E+00
 -4.185103436E-02 -6.979388384E-04 7.031413717E+04 9.478022963E+01 3.007840261E+00
 -3.623396159E-02 -7.557573570E-04 7.041034140E+04 9.365125014E+01 3.242349393E+00
 -3.116187183E-02 -6.601287272E-04 7.052144071E+04 9.233074493E+01 3.516997269E+00
 -2.657808432E-02 -5.739237856E-04 7.065042276E+04 9.077448814E+01 3.831367813E+00
 -2.244162863E-02 -4.963415230E-04 7.080118828E+04 8.892377834E+01 4.184260230E+00
 -1.871473244E-02 -4.266401365E-04 7.097826687E+04 8.669819179E+01 4.585356953E+00
 -1.536258284E-02 -3.641336256E-04 7.118809236E+04 8.399659119E+01 5.047620011E+00
 -1.235310485E-02 -3.081884958E-04 7.143812458E+04 8.064031195E+01 5.589274194E+00
 -9.656756032E-03 -2.582205598E-04 7.174164428E+04 7.642487480E+01 6.239447181E+00
 -7.246336042E-03 -2.136918173E-04 7.210885035E+04 7.084248017E+01 7.030367200E+00
 -5.096810014E-03 -1.741073884E-04 7.256840846E+04 6.346245745E+01 8.064749416E+00
 -3.185144836E-03 -1.390123844E-04 7.308814927E+04 5.275762767E+01 9.235884910E+00
 -1.490157361E-03 -1.079883177E-04 7.363973514E+04 3.963008491E+01 1.195600457E+01
 7.626351982E-06 -8.064715534E-05 7.393153716E+04 3.306801835E+01 1.410525748E+01
 -4.913313371E+00 2.489252871E-01 6.969542378E+04 1.017599036E+02 4.608152532E-03
 -4.537941294E+00 2.350896031E-01 6.969543493E+04 1.017598242E+02 7.019221498E-03
 -4.190258227E+00 2.222771887E-01 6.969545721E+04 1.017596822E+02 1.257145153E-02
 -3.868275756E+00 2.104145164E-01 6.969548080E+04 1.017595169E+02 1.917108067E-02
 -3.570145464E+00 1.994332437E-01 6.969551522E+04 1.017592306E+02 2.633247487E-02
 -3.293092599E+00 1.845308931E-01 6.969557196E+04 1.017587319E+02 3.399134305E-02
 -3.036421915E+00 1.700032287E-01 6.969565027E+04 1.017580024E+02 4.216779405E-02
 -2.798894713E+00 1.565616178E-01 6.969574691E+04 1.017570633E+02 5.089323547E-02
 -2.579125372E+00 1.441274051E-01 6.969586502E+04 1.017558799E+02 6.021872152E-02
 -2.375826408E+00 1.326275076E-01 6.969600850E+04 1.017544126E+02 7.020972629E-02
 -2.187801633E+00 1.219940270E-01 6.969618082E+04 1.017526232E+02 8.093656870E-02
 -2.013939792E+00 1.121638877E-01 6.969638640E+04 1.017504639E+02 9.247489106E-02
 -1.853208635E+00 1.030785001E-01 6.969663066E+04 1.017478761E+02 1.049075812E-01
 -1.704649394E+00 9.468344718E-02 6.969691994E+04 1.017447914E+02 1.183248070E-01
 -1.567371645E+00 8.692819190E-02 6.969726164E+04 1.017411292E+02 1.328242171E-01
 -1.440548524E+00 7.976580523E-02 6.969766451E+04 1.017367943E+02 1.485116195E-01
 -1.323412272E+00 7.315271266E-02 6.969813884E+04 1.017316747E+02 1.655015276E-01
 -1.215250087E+00 6.704845827E-02 6.969869667E+04 1.017256390E+02 1.839176916E-01
 -1.115400266E+00 6.141548497E-02 6.969935215E+04 1.017185325E+02 2.038940771E-01
 -1.023248610E+00 5.621893000E-02 6.970012184E+04 1.017101749E+02 2.255748595E-01
 -9.382250815E-01 5.142643456E-02 6.970102512E+04 1.017003527E+02 2.491167351E-01
 -8.598006925E-01 4.700796660E-02 6.970208463E+04 1.016888171E+02 2.746863616E-01
 -7.874846075E-01 4.293565604E-02 6.970332684E+04 1.016752781E+02 3.024625564E-01
 -7.208214492E-01 3.918364133E-02 6.970478271E+04 1.016593994E+02 3.326420462E-01
 -6.593887906E-01 3.572792690E-02 6.970648834E+04 1.016407869E+02 3.654377515E-01
 -6.027948219E-01 3.254625053E-02 6.970848556E+04 1.016189786E+02 4.010729141E-01
 -5.506761800E-01 2.961796007E-02 6.971082297E+04 1.015934393E+02 4.397853563E-01
 -5.026959291E-01 2.692389894E-02 6.971355716E+04 1.015635462E+02 4.818344892E-01
 -4.585416825E-01 2.444629974E-02 6.971675375E+04 1.015285763E+02 5.274969166E-01
 -4.179238552E-01 2.216868552E-02 6.972048864E+04 1.014876923E+02 5.770670793E-01
 -3.805740391E-01 2.007577809E-02 6.972484956E+04 1.014399244E+02 6.308594553E-01
 -3.462434918E-01 1.815341300E-02 6.972993778E+04 1.013841515E+02 6.892092329E-01
 -3.147017308E-01 1.638846068E-02 6.973587003E+04 1.013190782E+02 7.524731445E-01
 -2.857352275E-01 1.476875334E-02 6.974278068E+04 1.012432100E+02 8.210306505E-01
 -2.591461914E-01 1.328301712E-02 6.975082416E+04 1.011548241E+02 8.952850917E-01