TITLE     = "fluent22.1.0  build-id: 10213"
VARIABLES = "X"
"Y"
"Pressure"
"X Velocity"
"Y Velocity"
DATASETAUXDATA Common.DensityVar="23"
DATASETAUXDATA Common.PressureVar="3"
DATASETAUXDATA Common.TemperatureVar="12"
DATASETAUXDATA Common.TurbulentDynamicViscosityVar="17"
DATASETAUXDATA Common.UVar="5"
DATASETAUXDATA Common.VectorVarsAreVelocity="TRUE"
DATASETAUXDATA Common.ViscosityVar="25"
DATASETAUXDATA Common.VVar="7"
ZONE T="fluid"
 STRANDID=1, SOLUTIONTIME=0.52
 Nodes=10240, Elements=10080, ZONETYPE=FEQuadrilateral
 DATAPACKING=POINT
 DT=(DOUBLE DOUBLE DOUBLE DOUBLE DOUBLE )
 -4.856290020E+00 -7.872354469E-01 6.969711534E+04 1.017532966E+02 4.117089140E-03
 -4.486951996E+00 -7.103094487E-01 6.969719010E+04 1.017522610E+02 6.960378293E-03
 -4.884823481E+00 -5.813004056E-01 6.969677106E+04 1.017546137E+02 4.581097154E-03
 -4.512965736E+00 -5.224299007E-01 6.969683165E+04 1.017537815E+02 7.455047576E-03
 -4.144857757E+00 -6.390543777E-01 6.969732503E+04 1.017502619E+02 1.354206820E-02
 -4.168537660E+00 -4.678985428E-01 6.969694198E+04 1.017521728E+02 1.409355770E-02
 -3.828050869E+00 -5.730631007E-01 6.969743722E+04 1.017483340E+02 2.140056021E-02
 -3.849569470E+00 -4.173948121E-01 6.969703471E+04 1.017506150E+02 2.200623248E-02
 -3.534712645E+00 -5.119571074E-01 6.969756189E+04 1.017463019E+02 2.991187537E-02
 -3.554230068E+00 -3.706291069E-01 6.969713917E+04 1.017489552E+02 3.058392294E-02
 -3.260635960E+00 -4.697083152E-01 6.969773619E+04 1.017439216E+02 3.893959060E-02
 -3.278593112E+00 -3.397375399E-01 6.969728880E+04 1.017469685E+02 3.970591627E-02
 -3.006472982E+00 -4.333352436E-01 6.969795304E+04 1.017411720E+02 4.849908406E-02
 -3.023035069E+00 -3.134783617E-01 6.969747777E+04 1.017446327E+02 4.938623750E-02
 -2.771266369E+00 -3.996719584E-01 6.969819763E+04 1.017381562E+02 5.865937431E-02
 -2.786537449E+00 -2.891746414E-01 6.969769247E+04 1.017420439E+02 5.968400981E-02
 -2.553644050E+00 -3.685223801E-01 6.969847503E+04 1.017348133E+02 6.947693846E-02
 -2.567720649E+00 -2.666848976E-01 6.969793763E+04 1.017391448E+02 7.065615602E-02
 -2.352331126E+00 -3.397043143E-01 6.969879138E+04 1.017310777E+02 8.101422002E-02
 -2.365302773E+00 -2.458776673E-01 6.969821921E+04 1.017358727E+02 8.236818114E-02
 -2.166143107E+00 -3.130484832E-01 6.969915073E+04 1.017268991E+02 9.334096572E-02
 -2.178092826E+00 -2.266308070E-01 6.969854106E+04 1.017321799E+02 9.489271253E-02
 -1.993979603E+00 -2.883976252E-01 6.969955872E+04 1.017222120E+02 1.065319460E-01
 -2.004984377E+00 -2.088308429E-01 6.969890854E+04 1.017280046E+02 1.083077195E-01
 -1.834818454E+00 -2.656056569E-01 6.970002219E+04 1.017169403E+02 1.206673787E-01
 -1.844949656E+00 -1.923723664E-01 6.969932826E+04 1.017232732E+02 1.226971306E-01
 -1.687710265E+00 -2.445368920E-01 6.970054872E+04 1.017109990E+02 1.358328558E-01
 -1.697034056E+00 -1.771574706E-01 6.969980760E+04 1.017179039E+02 1.381509656E-01
 -1.551773318E+00 -2.250653147E-01 6.970114701E+04 1.017042910E+02 1.521197305E-01
 -1.560351017E+00 -1.630952264E-01 6.970035503E+04 1.017118023E+02 1.547656403E-01
 -1.426188831E+00 -2.070739034E-01 6.970182711E+04 1.016967037E+02 1.696249011E-01
 -1.434077264E+00 -1.501011943E-01 6.970098040E+04 1.017048596E+02 1.726439498E-01
 -1.310196551E+00 -1.904540009E-01 6.970260064E+04 1.016881089E+02 1.884510153E-01
 -1.317448370E+00 -1.380969704E-01 6.970169512E+04 1.016969501E+02 1.918953034E-01
 -1.203090642E+00 -1.751047285E-01 6.970348098E+04 1.016783581E+02 2.087067432E-01
 -1.209754624E+00 -1.270097637E-01 6.970251237E+04 1.016879273E+02 2.126360433E-01
 -1.104215869E+00 -1.609324404E-01 6.970448362E+04 1.016672805E+02 2.305054675E-01
 -1.110337196E+00 -1.167720029E-01 6.970344745E+04 1.016776229E+02 2.349895944E-01
 -1.012964037E+00 -1.478502159E-01 6.970562649E+04 1.016546800E+02 2.539664134E-01
 -1.018584550E+00 -1.073209698E-01 6.970451805E+04 1.016658417E+02 2.590855796E-01
 -9.287706797E-01 -1.357773874E-01 6.970693042E+04 1.016403269E+02 2.792171195E-01
 -9.339291223E-01 -9.859845907E-02 6.970574474E+04 1.016523586E+02 2.850602996E-01
 -8.511119789E-01 -1.246391000E-01 6.970841942E+04 1.016239562E+02 3.063885891E-01
 -8.558442197E-01 -9.055046080E-02 6.970715152E+04 1.016369110E+02 3.130604264E-01
 -7.795018963E-01 -1.143659026E-01 6.971012118E+04 1.016052631E+02 3.356148709E-01
 -7.838411360E-01 -8.312686540E-02 6.970876600E+04 1.016191934E+02 3.432391679E-01
 -7.134895051E-01 -1.048933672E-01 6.971206787E+04 1.015838933E+02 3.670369702E-01
 -7.174664691E-01 -7.628118900E-02 6.971062012E+04 1.015988544E+02 3.757534776E-01
 -6.526565068E-01 -9.616173411E-02 6.971429680E+04 1.015594365E+02 4.008004884E-01
 -6.562996245E-01 -6.997031765E-02 6.971275104E+04 1.015754850E+02 4.107681046E-01
 -5.966149207E-01 -8.811558212E-02 6.971685109E+04 1.015314180E+02 4.370541465E-01
 -5.999504919E-01 -6.415426940E-02 6.971520184E+04 1.015486109E+02 4.484557827E-01
 -5.450049350E-01 -8.070352152E-02 6.971978052E+04 1.014992891E+02 4.759496430E-01
 -5.480572846E-01 -5.879597270E-02 6.971802229E+04 1.015176837E+02 4.889953073E-01
 -4.974929068E-01 -7.387790823E-02 6.972314267E+04 1.014624151E+02 5.176411484E-01
 -5.002845284E-01 -5.386106014E-02 6.972126992E+04 1.014820688E+02 5.325707903E-01
 -4.537695026E-01 -6.759457771E-02 6.972700402E+04 1.014200623E+02 5.622840890E-01
 -4.563211918E-01 -4.931767635E-02 6.972501126E+04 1.014410317E+02 5.793716025E-01
 -4.135479679E-01 -6.181259725E-02 6.973144131E+04 1.013713829E+02 6.100340295E-01
 -4.158789465E-01 -4.513629914E-02 6.972932309E+04 1.013937239E+02 6.295917503E-01
 -3.765625182E-01 -5.649403531E-02 6.973654300E+04 1.013153983E+02 6.610457297E-01
 -3.786905489E-01 -4.128957287E-02 6.973429397E+04 1.013391652E+02 6.834291202E-01
 -3.425668426E-01 -5.160374681E-02 6.974241102E+04 1.012509793E+02 7.154718438E-01
 -3.445083362E-01 -3.775215322E-02 6.974002595E+04 1.012762245E+02 7.410846539E-01
 -3.113327121E-01 -4.710917307E-02 6.974916267E+04 1.011768235E+02 7.734613910E-01
 -3.131028266E-01 -3.450056262E-02 6.974663649E+04 1.012035969E+02 8.027614666E-01
 -2.826486856E-01 -4.298015565E-02 6.975693285E+04 1.010914302E+02 8.351582986E-01
 -2.842614182E-01 -3.151305550E-02 6.975426066E+04 1.011197788E+02 8.686639659E-01
 -2.563189070E-01 -3.918876289E-02 6.976587649E+04 1.009930709E+02 9.006997346E-01
 -2.577871797E-01 -2.876949283E-02 6.976305362E+04 1.010230382E+02 9.389967747E-01
 -2.321619862E-01 -3.570912850E-02 6.977617142E+04 1.008797558E+02 9.702141269E-01
 -2.334977250E-01 -2.625122516E-02 6.977319342E+04 1.009113813E+02 1.013963484E+00
 -2.100099593E-01 -3.251730128E-02 6.978802157E+04 1.007491942E+02 1.043818968E+00
 -2.112241684E-01 -2.394098382E-02 6.978488427E+04 1.007825128E+02 1.093765260E+00
 -1.897073223E-01 -2.959110531E-02 6.980166072E+04 1.005987496E+02 1.121618084E+00
 -1.908101518E-01 -2.182277959E-02 6.979836021E+04 1.006337911E+02 1.178599117E+00
 -1.711101324E-01 -2.691000991E-02 6.981735672E+04 1.004253854E+02 1.203698583E+00
 -1.721109419E-01 -1.988180849E-02 6.981388938E+04 1.004621738E+02 1.268656090E+00
 -1.540851728E-01 -2.445500886E-02 6.983541648E+04 1.002256029E+02 1.290125659E+00
 -1.549925908E-01 -1.810436424E-02 6.983177903E+04 1.002641559E+02 1.364117372E+00
 -1.385091773E-01 -2.220850818E-02 6.985619175E+04 9.999536465E+01 1.380940184E+00
 -1.393311550E-01 -1.647775699E-02 6.985238130E+04 1.000356912E+02 1.465154462E+00
 -1.242681087E-01 -2.015422207E-02 6.988008577E+04 9.973000652E+01 1.476140133E+00
 -1.250119710E-01 -1.499023797E-02 6.987609996E+04 9.977210695E+01 1.571911516E+00
 -1.112564889E-01 -1.827707642E-02 6.990756085E+04 9.942413405E+01 1.575679482E+00
 -1.119289819E-01 -1.363092970E-02 6.990339794E+04 9.946799712E+01 1.684509839E+00
 -9.937677703E-02 -1.656311950E-02 6.993914898E+04 9.907147279E+01 1.679455273E+00
 -9.998411072E-02 -1.238976146E-02 6.993480803E+04 9.911706776E+01 1.803037133E+00
 -8.853879072E-02 -1.499943934E-02 6.997546504E+04 9.866468921E+01 1.787268837E+00
 -8.908668014E-02 -1.125740970E-02 6.997094644E+04 9.871196289E+01 1.927516234E+00
 -7.865916946E-02 -1.357408739E-02 7.001722093E+04 9.819517038E+01 1.898794901E+00
 -7.915287185E-02 -1.022524300E-02 7.001252592E+04 9.824405312E+01 2.057879542E+00
 -6.966087573E-02 -1.227600790E-02 7.006524213E+04 9.765278554E+01 2.013490432E+00
 -7.010522538E-02 -9.285271386E-03 7.006037442E+04 9.770317460E+01 2.193916432E+00
 -6.147273194E-02 -1.109497289E-02 7.012048932E+04 9.702549650E+01 2.130547994E+00
 -6.187217242E-02 -8.430099616E-03 7.011545927E+04 9.707718681E+01 2.335231909E+00
 -5.402899043E-02 -1.002152205E-02 7.018409625E+04 9.629891860E+01 2.248812691E+00
 -5.438760443E-02 -7.652884140E-03 7.017892096E+04 9.635161367E+01 2.481122709E+00
 -4.726893419E-02 -9.046907013E-03 7.025739161E+04 9.545543946E+01 2.366703149E+00
 -4.759047120E-02 -6.947293324E-03 7.025209295E+04 9.550870155E+01 2.630521223E+00
 -4.113650632E-02 -8.163040130E-03 7.034193650E+04 9.447470560E+01 2.483384770E+00
 -4.142440825E-02 -6.307470870E-03 7.033653519E+04 9.452820083E+01 2.783164377E+00
 -3.558818371E-02 -7.313977190E-03 7.043945142E+04 9.333116670E+01 2.612892287E+00
 -3.584426209E-02 -5.683615535E-03 7.043390099E+04 9.338525769E+01 2.952797905E+00
 -3.060338317E-02 -6.332620426E-03 7.055210447E+04 9.199327574E+01 2.774525169E+00
 -3.082439143E-02 -4.922347660E-03 7.054629606E+04 9.204892781E+01 3.158362559E+00
 -2.609848690E-02 -5.446013054E-03 7.068286320E+04 9.041679850E+01 2.962361212E+00
 -2.628780060E-02 -4.234637221E-03 7.067672659E+04 9.047471804E+01 3.395626944E+00
 -2.203322882E-02 -4.646191012E-03 7.083560866E+04 8.854370319E+01 3.169458111E+00
 -2.219394032E-02 -3.614298949E-03 7.082908991E+04 8.860388743E+01 3.659314003E+00
 -1.837048581E-02 -3.925807995E-03 7.101485844E+04 8.629299472E+01 3.398363629E+00
 -1.850542646E-02 -3.055626415E-03 7.100792973E+04 8.635570450E+01 3.954255811E+00
 -1.507604322E-02 -3.278090614E-03 7.122721569E+04 8.356212922E+01 3.662087195E+00
 -1.518780376E-02 -2.553357562E-03 7.121975414E+04 8.362722225E+01 4.294363704E+00
 -1.211837721E-02 -2.696796626E-03 7.148000774E+04 8.017321015E+01 3.955250460E+00
 -1.220932676E-02 -2.102642543E-03 7.147202767E+04 8.024119239E+01 4.680985664E+00
 -9.468452963E-03 -2.176176000E-03 7.178694956E+04 7.591404379E+01 4.327105017E+00
 -9.540756476E-03 -1.699013697E-03 7.177811103E+04 7.598420861E+01 5.160772710E+00
 -7.099537513E-03 -1.710934607E-03 7.215763780E+04 7.029312088E+01 4.712571489E+00
 -7.155171985E-03 -1.338357524E-03 7.214827240E+04 7.036394189E+01 5.695245169E+00
 -4.987026189E-03 -1.296200344E-03 7.262110128E+04 6.284377477E+01 5.368000549E+00
 -5.027795604E-03 -1.016888478E-03 7.261002767E+04 6.291651439E+01 6.502100469E+00
 -3.108281713E-03 -9.274913385E-04 7.314362524E+04 5.213803155E+01 5.903912733E+00
 -3.135830871E-03 -7.311243002E-04 7.313212466E+04 5.220188518E+01 7.308900001E+00
 -1.442485013E-03 -6.006858051E-04 7.369446441E+04 3.890693584E+01 8.659487830E+00
 -1.458312303E-03 -4.778624470E-04 7.367875124E+04 3.900433491E+01 1.017174801E+01
 2.950318352E-05 -3.119902977E-04 7.398523403E+04 3.218446533E+01 1.137206163E+01
 2.403397564E-05 -2.541545121E-04 7.396388126E+04 3.232576197E+01 1.277808444E+01
 -4.904860300E+00 -3.743658139E-01 6.969642068E+04 1.017559710E+02 4.987643269E-03
 -4.531134185E+00 -3.336275048E-01 6.969646791E+04 1.017553378E+02 7.888963699E-03
 -4.184975577E+00 -2.958908910E-01 6.969655480E+04 1.017541162E+02 1.457768233E-02
 -3.864404792E+00 -2.609404824E-01 6.969662905E+04 1.017529293E+02 2.253600490E-02
 -3.567581530E+00 -2.285759578E-01 6.969671434E+04 1.017516411E+02 3.116683938E-02
 -3.290863006E+00 -2.090987121E-01 6.969683946E+04 1.017500507E+02 4.036864328E-02
 -3.034353171E+00 -1.930055711E-01 6.969699997E+04 1.017481350E+02 5.015761047E-02
 -2.796974757E+00 -1.781096680E-01 6.969718428E+04 1.017459769E+02 6.058107016E-02
 -2.577343022E+00 -1.643244019E-01 6.969739668E+04 1.017435247E+02 7.169550246E-02
 -2.374171293E+00 -1.515693029E-01 6.969764279E+04 1.017407201E+02 8.356973954E-02
 -2.186264140E+00 -1.397696049E-01 6.969792635E+04 1.017375182E+02 9.627894994E-02
 -2.012511009E+00 -1.288558479E-01 6.969825241E+04 1.017338610E+02 1.099038926E-01
 -1.851880300E+00 -1.187635078E-01 6.969862735E+04 1.017296788E+02 1.245322040E-01
 -1.703413852E+00 -1.094326522E-01 6.969905830E+04 1.017248926E+02 1.402583708E-01
 -1.566221802E+00 -1.008076192E-01 6.969955348E+04 1.017194115E+02 1.571838919E-01
 -1.439477809E+00 -9.283671949E-02 6.970012250E+04 1.017131297E+02 1.754175122E-01
 -1.322414596E+00 -8.547195839E-02 6.970077650E+04 1.017059244E+02 1.950757584E-01
 -1.214319811E+00 -7.866877745E-02 6.970152843E+04 1.016976532E+02 2.162827360E-01
 -1.114532168E+00 -7.238581394E-02 6.970239338E+04 1.016881508E+02 2.391708945E-01
 -1.022437855E+00 -6.658467697E-02 6.970338880E+04 1.016772232E+02 2.638815776E-01
 -9.374671938E-01 -6.122973921E-02 6.970453494E+04 1.016646474E+02 2.905633273E-01
 -8.590915289E-01 -5.628794296E-02 6.970585552E+04 1.016501643E+02 3.193735571E-01
 -7.868203342E-01 -5.172861976E-02 6.970737804E+04 1.016334724E+02 3.504813591E-01
 -7.201985189E-01 -4.752332234E-02 6.970913432E+04 1.016142216E+02 3.840666053E-01
 -6.588039220E-01 -4.364566826E-02 6.971116128E+04 1.015920046E+02 4.203147058E-01
 -6.022449805E-01 -4.007119436E-02 6.971350172E+04 1.015663499E+02 4.594191227E-01
 -5.501585600E-01 -3.677722106E-02 6.971620528E+04 1.015367104E+02 5.015861543E-01
 -5.022079371E-01 -3.374272613E-02 6.971932941E+04 1.015024524E+02 5.470314748E-01
 -4.580809218E-01 -3.094822694E-02 6.972294049E+04 1.014628426E+02 5.959789950E-01
 -4.174881119E-01 -2.837567078E-02 6.972711524E+04 1.014170329E+02 6.486617647E-01
 -3.801612686E-01 -2.600833262E-02 6.973194216E+04 1.013640434E+02 7.053218453E-01
 -3.458518066E-01 -2.383071973E-02 6.973752323E+04 1.013027428E+02 7.662097525E-01
 -3.143293891E-01 -2.182848275E-02 6.974397591E+04 1.012318259E+02 8.315841925E-01
 -2.853806227E-01 -1.998833272E-02 6.975143525E+04 1.011497880E+02 9.017118620E-01
 -2.588078421E-01 -1.829796378E-02 6.976005640E+04 1.010548962E+02 9.768670663E-01
 -2.344279821E-01 -1.674598095E-02 6.977001743E+04 1.009451550E+02 1.057331294E+00
 -2.120715274E-01 -1.532183295E-02 6.978152252E+04 1.008182676E+02 1.143392769E+00
 -1.915815375E-01 -1.401574959E-02 6.979480570E+04 1.006715902E+02 1.235345952E+00
 -1.728127398E-01 -1.281868350E-02 6.981013508E+04 1.005020784E+02 1.333490880E+00
 -1.556306871E-01 -1.172225604E-02 6.982781780E+04 1.003062250E+02 1.438131688E+00
 -1.399109741E-01 -1.071870707E-02 6.984820591E+04 1.000799806E+02 1.549577605E+00
 -1.255385100E-01 -9.800848495E-03 6.987170311E+04 9.981866913E+01 1.668131268E+00
 -1.124068425E-01 -8.962021288E-03 6.989877224E+04 9.951687971E+01 1.794094843E+00
 -1.004175292E-01 -8.196055856E-03 6.992994598E+04 9.916831057E+01 1.927761873E+00
 -8.947955477E-02 -7.497235570E-03 6.996584069E+04 9.876559768E+01 2.069399453E+00
 -7.950878863E-02 -6.860263241E-03 7.000716917E+04 9.830009980E+01 2.219223670E+00
 -7.042748170E-02 -6.280230338E-03 7.005476017E+04 9.776163240E+01 2.377367703E+00
 -6.216379907E-02 -5.752588798E-03 7.010958245E+04 9.713801803E+01 2.543864523E+00
 -5.465138598E-02 -5.273125137E-03 7.017277908E+04 9.641473800E+01 2.718525870E+00
 -4.782896491E-02 -4.837936665E-03 7.024568617E+04 9.557394220E+01 2.900924068E+00
 -4.163996156E-02 -4.443409675E-03 7.032986545E+04 9.459542420E+01 3.091344404E+00
 -3.603767927E-02 -4.045905677E-03 7.042693537E+04 9.345465054E+01 3.302821861E+00
 -3.099150786E-02 -3.505752434E-03 7.053893318E+04 9.212138745E+01 3.553730389E+00
 -2.643114763E-02 -3.017866807E-03 7.066887355E+04 9.055114953E+01 3.841889738E+00
 -2.231583696E-02 -2.577850334E-03 7.082067592E+04 8.868452120E+01 4.163902717E+00
 -1.860799597E-02 -2.181643890E-03 7.099889166E+04 8.644107273E+01 4.526935925E+00
 -1.527298901E-02 -1.825503611E-03 7.120994419E+04 8.371773430E+01 4.945728271E+00
 -1.227890439E-02 -1.505978381E-03 7.146138111E+04 8.033774561E+01 5.429164539E+00
 -9.596350082E-03 -1.219888775E-03 7.176628184E+04 7.608738490E+01 6.020060853E+00
 -7.198264196E-03 -9.643073346E-04 7.213535249E+04 7.047372809E+01 6.711358387E+00
 -5.059739327E-03 -7.365400762E-04 7.259510356E+04 6.303119713E+01 7.680207998E+00
 -3.157859646E-03 -5.341089711E-04 7.311581336E+04 5.232564640E+01 8.764046348E+00
 -1.471549884E-03 -3.547349859E-04 7.365769400E+04 3.915637981E+01 1.178087814E+01
 1.856476775E-05 -1.963187265E-04 7.393775512E+04 3.249840595E+01 1.432527781E+01
 -4.916318661E+00 -1.667794339E-01 6.969606838E+04 1.017573542E+02 5.286464020E-03
 -4.541381795E+00 -1.442233676E-01 6.969610218E+04 1.017569223E+02 8.211030189E-03
 -4.194101765E+00 -1.233278394E-01 6.969616510E+04 1.017560935E+02 1.494954032E-02
 -3.872492471E+00 -1.039736595E-01 6.969622024E+04 1.017552801E+02 2.296466441E-02
 -3.574707646E+00 -8.605003329E-02 6.969628615E+04 1.017543605E+02 3.166242880E-02
 -3.297390914E+00 -7.802461288E-02 6.969638646E+04 1.017531651E+02 4.095101253E-02
 -3.040376827E+00 -7.213150876E-02 6.969651805E+04 1.017516711E+02 5.084753255E-02
 -2.802531781E+00 -6.667488502E-02 6.969667148E+04 1.017499463E+02 6.139220027E-02
 -2.582468308E+00 -6.162320458E-02 6.969685061E+04 1.017479451E+02 7.264228885E-02
 -2.378897206E+00 -5.694716171E-02 6.969706058E+04 1.017456144E+02 8.467006752E-02
 -2.190620692E+00 -5.261952637E-02 6.969730503E+04 1.017429120E+02 9.755378531E-02
 -2.016526030E+00 -4.861499959E-02 6.969758877E+04 1.017397835E+02 1.113774461E-01
 -1.855579590E+00 -4.491007881E-02 6.969791787E+04 1.017361628E+02 1.262325943E-01
 -1.706821327E+00 -4.148293277E-02 6.969829919E+04 1.017319742E+02 1.422182530E-01
 -1.569359628E+00 -3.831328509E-02 6.969874069E+04 1.017271304E+02 1.594410606E-01
 -1.442366527E+00 -3.538230603E-02 6.969925170E+04 1.017215287E+02 1.780157606E-01
 -1.325073238E+00 -3.267251173E-02 6.969984309E+04 1.017150499E+02 1.980655929E-01
 -1.216766008E+00 -3.016767059E-02 6.970052753E+04 1.017075548E+02 2.197227412E-01
 -1.116782252E+00 -2.785271612E-02 6.970131978E+04 1.016988812E+02 2.431289137E-01
 -1.024506950E+00 -2.571366585E-02 6.970223706E+04 1.016888405E+02 2.684353948E-01
 -9.393693036E-01 -2.373754592E-02 6.970329939E+04 1.016772113E+02 2.958046428E-01
 -8.608396189E-01 -2.191232083E-02 6.970453009E+04 1.016637370E+02 3.254081691E-01
 -7.884264049E-01 -2.022682809E-02 6.970595627E+04 1.016481186E+02 3.574276932E-01
 -7.216736762E-01 -1.867071729E-02 6.970760956E+04 1.016300108E+02 3.920593186E-01
 -6.601584420E-01 -1.723439343E-02 6.970952677E+04 1.016090106E+02 4.295145437E-01
 -6.034883693E-01 -1.590896396E-02 6.971175043E+04 1.015846471E+02 4.700125786E-01
 -5.512996101E-01 -1.468618944E-02 6.971432975E+04 1.015563774E+02 5.137818964E-01
 -5.032547790E-01 -1.355843749E-02 6.971732195E+04 1.015235701E+02 5.610689426E-01
 -4.590410723E-01 -1.251863970E-02 6.972079328E+04 1.014854936E+02 6.121332595E-01
 -4.183685188E-01 -1.156025135E-02 6.972482022E+04 1.014413019E+02 6.672465193E-01
 -3.809683524E-01 -1.067721379E-02 6.972949107E+04 1.013900168E+02 7.266943139E-01
 -3.465914991E-01 -9.863919060E-03 6.973490766E+04 1.013305085E+02 7.907763233E-01
 -3.150071694E-01 -9.115176836E-03 6.974118723E+04 1.012614730E+02 8.598062613E-01
 -2.860015500E-01 -8.426183423E-03 6.974846468E+04 1.011814067E+02 9.341123053E-01
 -2.593765872E-01 -7.792492674E-03 6.975689499E+04 1.010885776E+02 1.014037464E+00
 -2.349488553E-01 -7.209988755E-03 6.976665601E+04 1.009809910E+02 1.099939930E+00
 -2.125485060E-01 -6.674860663E-03 6.977795172E+04 1.008563508E+02 1.192193520E+00
 -1.920182898E-01 -6.183578428E-03 6.979101590E+04 1.007120142E+02 1.291188310E+00
 -1.732126485E-01 -5.732870934E-03 6.980611630E+04 1.005449379E+02 1.397331182E+00
 -1.559968700E-01 -5.319705331E-03 6.982355968E+04 1.003516158E+02 1.511046520E+00
 -1.402463043E-01 -4.941268000E-03 6.984369759E+04 1.001280012E+02 1.632778448E+00
 -1.258456342E-01 -4.594947007E-03 6.986693312E+04 9.986941830E+01 1.762983736E+00
 -1.126881976E-01 -4.278316052E-03 6.989372847E+04 9.957045708E+01 1.902140362E+00
 -1.006753587E-01 -3.989119815E-03 6.992461559E+04 9.922482231E+01 2.050742074E+00
 -8.971592275E-02 -3.725260696E-03 6.996020971E+04 9.882515392E+01 2.209286771E+00
 -7.972559374E-02 -3.484786829E-03 7.000122270E+04 9.836280958E+01 2.378271430E+00
 -7.062646963E-02 -3.265881333E-03 7.004848260E+04 9.782760306E+01 2.558166696E+00
 -6.234657422E-02 -3.066852679E-03 7.010295711E+04 9.720734953E+01 2.749401410E+00
 -5.481942231E-02 -2.886126054E-03 7.016578914E+04 9.648752371E+01 2.952277496E+00
 -4.798361599E-02 -2.722235595E-03 7.023831391E+04 9.565022961E+01 3.166991490E+00
 -4.178246980E-02 -2.573817437E-03 7.032209232E+04 9.467532172E+01 3.394391488E+00
 -3.616783259E-02 -2.403412056E-03 7.041871729E+04 9.353846076E+01 3.647334913E+00
 -3.110421414E-02 -2.085040336E-03 7.053017673E+04 9.220988453E+01 3.943482442E+00
 -2.652808591E-02 -1.797583067E-03 7.065948391E+04 9.064519024E+01 4.282073323E+00
 -2.239854546E-02 -1.538433736E-03 7.081056440E+04 8.878463818E+01 4.661718302E+00
 -1.867788304E-02 -1.305185276E-03 7.098795786E+04 8.654807631E+01 5.092133516E+00
 -1.533134339E-02 -1.095616413E-03 7.119802126E+04 8.383265441E+01 5.588725456E+00
 -1.232690459E-02 -9.076788373E-04 7.144831447E+04 8.046194461E+01 6.167892976E+00
 -9.635073090E-03 -7.394851284E-04 7.175174373E+04 7.622267481E+01 6.868331719E+00
 -7.228693536E-03 -5.892973635E-04 7.211914262E+04 7.062226619E+01 7.713354493E+00
 -5.082772486E-03 -4.555163529E-04 7.257658945E+04 6.319012934E+01 8.846944943E+00
 -3.174314952E-03 -3.366712929E-04 7.309520838E+04 5.250105718E+01 1.019549391E+01
 -1.482172852E-03 -2.314094159E-04 7.363227919E+04 3.936267372E+01 1.337231187E+01
 1.309555987E-05 -1.384829409E-04 7.390810721E+04 3.272225832E+01 1.587791396E+01
 -4.919121367E+00 4.110405248E-02 6.969571353E+04 1.017587568E+02 5.510759590E-03
 -4.543637286E+00 4.545501064E-02 6.969573388E+04 1.017585264E+02 8.459876817E-03
 -4.195850422E+00 4.948829632E-02 6.969577255E+04 1.017580918E+02 1.525161094E-02
 -3.873771775E+00 5.322666335E-02 6.969580834E+04 1.017576536E+02 2.332481892E-02
 -3.575552383E+00 5.669126897E-02 6.969585488E+04 1.017571044E+02 3.208428100E-02
 -3.298125203E+00 5.324734579E-02 6.969593014E+04 1.017563093E+02 4.144763424E-02
 -3.041058430E+00 4.892491768E-02 6.969603223E+04 1.017552454E+02 5.143662748E-02
 -2.803164636E+00 4.492792453E-02 6.969615418E+04 1.017539626E+02 6.208825510E-02
 -2.583056069E+00 4.123275551E-02 6.969629942E+04 1.017524210E+02 7.346065571E-02
 -2.379443260E+00 3.781747421E-02 6.969647255E+04 1.017505740E+02 8.562887368E-02
 -2.191128181E+00 3.466170215E-02 6.969667706E+04 1.017483818E+02 9.867386211E-02
 -2.016997865E+00 3.174651011E-02 6.969691753E+04 1.017457937E+02 1.126826079E-01
 -1.856018471E+00 2.905431675E-02 6.969719969E+04 1.017427473E+02 1.277503522E-01
 -1.707229755E+00 2.656879410E-02 6.969753013E+04 1.017391710E+02 1.439805373E-01
 -1.569739921E+00 2.427477939E-02 6.969791650E+04 1.017349808E+02 1.614849315E-01
 -1.442720832E+00 2.215819291E-02 6.969836784E+04 1.017300780E+02 1.803842317E-01
 -1.325403546E+00 2.020596137E-02 6.969889468E+04 1.017243470E+02 2.008086528E-01
 -1.217074163E+00 1.840594660E-02 6.969950939E+04 1.017176524E+02 2.228984023E-01
 -1.117069959E+00 1.674687900E-02 6.970022640E+04 1.017098359E+02 2.468042718E-01
 -1.024775791E+00 1.521829564E-02 6.970106258E+04 1.017007124E+02 2.726885595E-01
 -9.396207422E-01 1.381048263E-02 6.970203763E+04 1.016900657E+02 3.007248036E-01
 -8.610750096E-01 1.251442145E-02 6.970317457E+04 1.016776434E+02 3.311002218E-01
 -7.886470018E-01 1.132173909E-02 6.970450015E+04 1.016631489E+02 3.640145968E-01
 -7.218806399E-01 1.022466165E-02 6.970604545E+04 1.016462378E+02 3.996787486E-01
 -6.603528462E-01 9.215971307E-03 6.970784697E+04 1.016265147E+02 4.383202112E-01
 -6.036712075E-01 8.288966343E-03 6.970994712E+04 1.016035146E+02 4.801888387E-01
 -5.514718011E-01 7.437424114E-03 6.971239479E+04 1.015766948E+02 5.255444141E-01
 -5.034171723E-01 6.655566764E-03 6.971524665E+04 1.015454291E+02 5.746578162E-01
 -4.591944536E-01 5.938029532E-03 6.971856861E+04 1.015089890E+02 6.278237059E-01
 -4.185136142E-01 5.279831480E-03 6.972243693E+04 1.014665311E+02 6.853543968E-01
 -3.811058330E-01 4.676348514E-03 6.972693955E+04 1.014170805E+02 7.475792956E-01
 -3.467219848E-01 4.123288542E-03 6.973217798E+04 1.013595102E+02 8.148474440E-01
 -3.151312327E-01 3.616668624E-03 6.973826915E+04 1.012925190E+02 8.875281725E-01
 -2.861197196E-01 3.152793984E-03 6.974534763E+04 1.012146059E+02 9.660117222E-01
 -2.594893509E-01 2.728238719E-03 6.975356803E+04 1.011240415E+02 1.050710376E+00
 -2.350566634E-01 2.339828079E-03 6.976310784E+04 1.010188338E+02 1.142059676E+00
 -2.126517736E-01 1.984622149E-03 6.977417062E+04 1.008966895E+02 1.240519772E+00
 -1.921173996E-01 1.659900799E-03 6.978698964E+04 1.007549688E+02 1.346577119E+00
 -1.733079531E-01 1.363149746E-03 6.980183208E+04 1.005906326E+02 1.460746493E+00
 -1.560886942E-01 1.092047576E-03 6.981900396E+04 1.004001785E+02 1.583573247E+00
 -1.403349470E-01 8.444535942E-04 6.983885597E+04 1.001795670E+02 1.715639081E+00
 -1.259313704E-01 6.183963758E-04 6.986179009E+04 9.992412670E+01 1.857555436E+00
 -1.127712802E-01 4.120628981E-04 6.988826735E+04 9.962845426E+01 2.009975918E+00
 -1.007560201E-01 2.237881613E-04 6.991881828E+04 9.928626782E+01 2.173598493E+00
 -8.979437655E-02 5.204522021E-05 6.995405606E+04 9.889022088E+01 2.349157056E+00
 -7.980203605E-02 -1.045644264E-04 6.999469027E+04 9.843168384E+01 2.537430337E+00
 -7.070108048E-02 -2.473201305E-04 7.004154648E+04 9.790048750E+01 2.739224749E+00
 -6.241951882E-02 -3.773910790E-04 7.009558902E+04 9.728446225E+01 2.955377956E+00
 -5.489085223E-02 -4.958449398E-04 7.015795779E+04 9.656910703E+01 3.186695356E+00
 -4.805367023E-02 -6.036561502E-04 7.022998323E+04 9.573652969E+01 3.434010574E+00
 -4.185127584E-02 -7.017138555E-04 7.031322426E+04 9.476660808E+01 3.698758356E+00
 -3.623415346E-02 -7.587500238E-04 7.040926046E+04 9.363512328E+01 3.993341801E+00
 -3.116202128E-02 -6.624607330E-04 7.052004841E+04 9.231260859E+01 4.334757650E+00
 -2.657819839E-02 -5.757046047E-04 7.064858499E+04 9.075480605E+01 4.723899073E+00
 -2.244171364E-02 -4.976692667E-04 7.079878416E+04 8.890199850E+01 5.161282851E+00
 -1.871479398E-02 -4.276017383E-04 7.097515730E+04 8.667423702E+01 5.659052042E+00
 -1.536262580E-02 -3.648052269E-04 7.118401629E+04 8.396908637E+01 6.233462964E+00
 -1.235313346E-02 -3.086359892E-04 7.143286179E+04 8.061045998E+01 6.907739188E+00
 -9.656773903E-03 -2.585002475E-04 7.173452029E+04 7.638577986E+01 7.718599601E+00
 -7.246346217E-03 -2.138511448E-04 7.209969339E+04 7.080410376E+01 8.713436989E+00
 -5.096815014E-03 -1.741857104E-04 7.255436697E+04 6.338872239E+01 1.001829738E+01
 -3.185146707E-03 -1.390417013E-04 7.307006552E+04 5.272689856E+01 1.162000166E+01
 -1.490157714E-03 -1.079938391E-04 7.360226611E+04 3.961937279E+01 1.495124096E+01
 7.626351982E-06 -8.064715534E-05 7.387461850E+04 3.298867558E+01 1.743607563E+01
 -4.913313371E+00 2.489252871E-01 6.969535619E+04 1.017601740E+02 5.636137174E-03
 -4.537942158E+00 2.350758352E-01 6.969536299E+04 1.017601474E+02 8.604614855E-03
 -4.190259856E+00 2.222512328E-01 6.969537703E+04 1.017601130E+02 1.544274651E-02
 -3.868278056E+00 2.103778296E-01 6.969539310E+04 1.017600549E+02 2.357531551E-02
 -3.570148351E+00 1.993871706E-01 6.969542009E+04 1.017598794E+02 3.240395708E-02
 -3.293095998E+00 1.844766351E-01 6.969546998E+04 1.017594893E+02 4.184802834E-02
 -3.036425756E+00 1.699419262E-01 6.969554209E+04 1.017588618E+02 5.192981193E-02
 -2.798898928E+00 1.564943271E-01 6.969563202E+04 1.017580278E+02 6.268489160E-02
 -2.579129900E+00 1.440550963E-01 6.969574278E+04 1.017569534E+02 7.417352775E-02
 -2.375831192E+00 1.325510713E-01 6.969587835E+04 1.017555985E+02 8.647381903E-02
 -2.187806622E+00 1.219142801E-01 6.969604210E+04 1.017539261E+02 9.966978861E-02
 -2.013944940E+00 1.120815792E-01 6.969623835E+04 1.017518891E+02 1.138518968E-01
 -1.853213898E+00 1.029943164E-01 6.969647248E+04 1.017494295E+02 1.291193773E-01
 -1.704654732E+00 9.459801645E-02 6.969675076E+04 1.017464794E+02 1.455802276E-01
 -1.567377022E+00 8.684208885E-02 6.969708053E+04 1.017429590E+02 1.633514295E-01
 -1.440553907E+00 7.967955488E-02 6.969747048E+04 1.017387736E+02 1.825596976E-01
 -1.323417631E+00 7.306679395E-02 6.969793081E+04 1.017338116E+02 2.033421606E-01
 -1.215255394E+00 6.696330719E-02 6.969847352E+04 1.017279420E+02 2.258470157E-01
 -1.115405497E+00 6.133149740E-02 6.969911267E+04 1.017210107E+02 2.502343577E-01
 -1.023253742E+00 5.613646416E-02 6.969986475E+04 1.017128370E+02 2.766768231E-01
 -9.382300947E-01 5.134581315E-02 6.970074908E+04 1.017032091E+02 3.053606026E-01
 -8.598055688E-01 4.692947866E-02 6.970178824E+04 1.016918789E+02 3.364862726E-01
 -7.874893311E-01 4.285955848E-02 6.970300864E+04 1.016785574E+02 3.702699547E-01
 -7.208260061E-01 3.911016027E-02 6.970444097E+04 1.016629026E+02 4.069442419E-01
 -6.593931688E-01 3.565725878E-02 6.970612106E+04 1.016445190E+02 4.467548201E-01
 -6.027990112E-01 3.247856301E-02 6.970809088E+04 1.016229507E+02 4.899671299E-01
 -5.506801720E-01 2.955339284E-02 6.971039916E+04 1.015976617E+02 5.368764923E-01
 -5.026997173E-01 2.686256439E-02 6.971310217E+04 1.015680291E+02 5.877900211E-01
 -4.585452619E-01 2.438828358E-02 6.971626515E+04 1.015333293E+02 6.430290508E-01
 -4.179272226E-01 2.211404734E-02 6.971996390E+04 1.014927230E+02 7.029454479E-01
 -3.805771929E-01 2.002455201E-02 6.972428603E+04 1.014452388E+02 7.679142459E-01
 -3.462464318E-01 1.810560836E-02 6.972933255E+04 1.013897541E+02 8.383332483E-01
 -3.147044586E-01 1.634406281E-02 6.973521994E+04 1.013249720E+02 9.146265321E-01
 -2.857377459E-01 1.472772447E-02 6.974208228E+04 1.012493959E+02 9.972458765E-01
 -2.591485046E-01 1.324529753E-02 6.975007368E+04 1.011613003E+02 1.086672078E+00