TITLE     = "fluent22.1.0  build-id: 10213"
VARIABLES = "X"
"Y"
"Pressure"
"X Velocity"
"Y Velocity"
DATASETAUXDATA Common.DensityVar="23"
DATASETAUXDATA Common.PressureVar="3"
DATASETAUXDATA Common.TemperatureVar="12"
DATASETAUXDATA Common.TurbulentDynamicViscosityVar="17"
DATASETAUXDATA Common.UVar="5"
DATASETAUXDATA Common.VectorVarsAreVelocity="TRUE"
DATASETAUXDATA Common.ViscosityVar="25"
DATASETAUXDATA Common.VVar="7"
ZONE T="fluid"
 STRANDID=1, SOLUTIONTIME=0.5625
 Nodes=10240, Elements=10080, ZONETYPE=FEQuadrilateral
 DATAPACKING=POINT
 DT=(DOUBLE DOUBLE DOUBLE DOUBLE DOUBLE )
 -4.856290020E+00 -7.872354469E-01 6.969735813E+04 1.017523462E+02 4.941600943E-03
 -4.486952965E+00 -7.103219658E-01 6.969743930E+04 1.017511892E+02 8.289052680E-03
 -4.884823481E+00 -5.813004056E-01 6.969695392E+04 1.017538963E+02 5.455060758E-03
 -4.512966690E+00 -5.224423350E-01 6.969701874E+04 1.017529772E+02 8.833710681E-03
 -4.144859580E+00 -6.390779484E-01 6.969758531E+04 1.017489543E+02 1.603578500E-02
 -4.168539456E+00 -4.679219658E-01 6.969713632E+04 1.017512001E+02 1.663720536E-02
 -3.828053441E+00 -5.730963837E-01 6.969770542E+04 1.017468031E+02 2.528433526E-02
 -3.849572005E+00 -4.174278949E-01 6.969723393E+04 1.017494834E+02 2.593865066E-02
 -3.534715869E+00 -5.119988685E-01 6.969783836E+04 1.017445533E+02 3.530585480E-02
 -3.554233246E+00 -3.706706275E-01 6.969734350E+04 1.017476705E+02 3.602586358E-02
 -3.260639754E+00 -4.697574583E-01 6.969802615E+04 1.017419292E+02 4.594375266E-02
 -3.278596854E+00 -3.397864166E-01 6.969750265E+04 1.017455088E+02 4.676006711E-02
 -3.006477269E+00 -4.333907414E-01 6.969826070E+04 1.017389058E+02 5.721485988E-02
 -3.023039297E+00 -3.135335716E-01 6.969770472E+04 1.017429721E+02 5.815660418E-02
 -2.771271076E+00 -3.997328605E-01 6.969852425E+04 1.017356091E+02 6.919769494E-02
 -2.786542091E+00 -2.892352363E-01 6.969793343E+04 1.017401775E+02 7.028224672E-02
 -2.553649109E+00 -3.685878140E-01 6.969882215E+04 1.017319740E+02 8.195802998E-02
 -2.567725639E+00 -2.667500072E-01 6.969819370E+04 1.017370645E+02 8.320292599E-02
 -2.352336477E+00 -3.397734790E-01 6.969916100E+04 1.017279302E+02 9.556916656E-02
 -2.365308049E+00 -2.459464926E-01 6.969849192E+04 1.017335659E+02 9.699514884E-02
 -2.166148694E+00 -3.131206441E-01 6.969954488E+04 1.017234260E+02 1.101131525E-01
 -2.178098334E+00 -2.267026150E-01 6.969883192E+04 1.017296333E+02 1.117438727E-01
 -1.993985373E+00 -2.884721088E-01 6.969997955E+04 1.017183938E+02 1.256782180E-01
 -2.004990065E+00 -2.089049617E-01 6.969921913E+04 1.017252032E+02 1.275405549E-01
 -1.834824361E+00 -2.656818461E-01 6.970047208E+04 1.017127543E+02 1.423593183E-01
 -1.844955478E+00 -1.924481804E-01 6.969966036E+04 1.017202000E+02 1.444838282E-01
 -1.687716266E+00 -2.446142215E-01 6.970103023E+04 1.017064202E+02 1.602582006E-01
 -1.697039968E+00 -1.772344160E-01 6.970016311E+04 1.017145397E+02 1.626798297E-01
 -1.551779374E+00 -2.251432675E-01 6.970166289E+04 1.016992917E+02 1.794836408E-01
 -1.560356981E+00 -1.631727874E-01 6.970073599E+04 1.017081262E+02 1.822424137E-01
 -1.426194905E+00 -2.071520067E-01 6.970238031E+04 1.016912542E+02 2.001516582E-01
 -1.434083244E+00 -1.501788996E-01 6.970138900E+04 1.017008483E+02 2.032933940E-01
 -1.310202610E+00 -1.905318233E-01 6.970319429E+04 1.016821765E+02 2.223852121E-01
 -1.317454333E+00 -1.381743899E-01 6.970213368E+04 1.016925782E+02 2.259627583E-01
 -1.203096656E+00 -1.751818768E-01 6.970411844E+04 1.016719074E+02 2.463147095E-01
 -1.209760540E+00 -1.270865056E-01 6.970298336E+04 1.016831681E+02 2.503889488E-01
 -1.104221811E+00 -1.610085572E-01 6.970516843E+04 1.016602722E+02 2.720784708E-01
 -1.110343038E+00 -1.168477112E-01 6.970395349E+04 1.016724476E+02 2.767187522E-01
 -1.012969881E+00 -1.479249775E-01 6.970636238E+04 1.016470704E+02 2.998215454E-01
 -1.018590293E+00 -1.073953223E-01 6.970506198E+04 1.016602182E+02 3.051082696E-01
 -9.287764039E-01 -1.358505016E-01 6.970772125E+04 1.016320707E+02 3.296958977E-01
 -9.339347447E-01 -9.867116496E-02 6.970632952E+04 1.016462508E+02 3.357226474E-01
 -8.511175626E-01 -1.247103045E-01 6.970926925E+04 1.016150069E+02 3.618617097E-01
 -8.558497012E-01 -9.062125944E-02 6.970778002E+04 1.016302802E+02 3.687347735E-01
 -7.795073213E-01 -1.144349638E-01 6.971103448E+04 1.015955689E+02 3.964891589E-01
 -7.838464585E-01 -8.319552475E-02 6.970944133E+04 1.016120014E+02 4.043267931E-01
 -7.134947550E-01 -1.049600789E-01 6.971304933E+04 1.015733982E+02 4.337529910E-01
 -7.174716167E-01 -7.634750447E-02 6.971134585E+04 1.015910589E+02 4.426947063E-01
 -6.526615672E-01 -9.622591657E-02 6.971535110E+04 1.015480826E+02 4.738319706E-01
 -6.563045832E-01 -7.003411112E-02 6.971353078E+04 1.015670393E+02 4.840417739E-01
 -5.966197792E-01 -8.817708119E-02 6.971798306E+04 1.015191439E+02 5.169141096E-01
 -5.999552497E-01 -6.421538843E-02 6.971603909E+04 1.015394678E+02 5.285759054E-01
 -5.450095809E-01 -8.076220812E-02 6.972099527E+04 1.014860289E+02 5.631935890E-01
 -5.480618312E-01 -5.885428982E-02 6.971892069E+04 1.015077922E+02 5.765166680E-01
 -4.974973313E-01 -7.393367770E-02 6.972444547E+04 1.014480989E+02 6.128685738E-01
 -5.002888554E-01 -5.391647232E-02 6.972223333E+04 1.014713739E+02 6.280932976E-01
 -4.537736986E-01 -6.764734938E-02 6.972840027E+04 1.014046165E+02 6.661412634E-01
 -4.563252926E-01 -4.937010446E-02 6.972604359E+04 1.014294754E+02 6.835424802E-01
 -4.135519300E-01 -6.186231394E-02 6.973293651E+04 1.013547298E+02 7.232175913E-01
 -4.158828161E-01 -4.518568746E-02 6.973042829E+04 1.013812447E+02 7.431082448E-01
 -3.765662428E-01 -5.654066288E-02 6.973814277E+04 1.012974559E+02 7.843060926E-01
 -3.786941841E-01 -4.133588859E-02 6.973547604E+04 1.013256979E+02 8.070421437E-01
 -3.425703278E-01 -5.164727363E-02 6.974412105E+04 1.012316608E+02 8.496166320E-01
 -3.445117355E-01 -3.779538587E-02 6.974128890E+04 1.012616999E+02 8.756024422E-01
 -3.113359577E-01 -4.714960937E-02 6.975098873E+04 1.011560375E+02 9.193592951E-01
 -3.131059901E-01 -3.454072342E-02 6.974798433E+04 1.011879416E+02 9.490533743E-01
 -2.826516931E-01 -4.301753279E-02 6.975888072E+04 1.010690800E+02 9.937433168E-01
 -2.842643478E-01 -3.155017659E-02 6.975569738E+04 1.011029146E+02 1.027664700E+00
 -2.563216793E-01 -3.922313243E-02 6.976795200E+04 1.009690538E+02 1.072975814E+00
 -2.577898785E-01 -2.880362630E-02 6.976458314E+04 1.010048817E+02 1.111711098E+00
 -2.321645277E-01 -3.574056108E-02 6.977838040E+04 1.008539624E+02 1.157260377E+00
 -2.335001979E-01 -2.628244194E-02 6.977481962E+04 1.008918430E+02 1.201471473E+00
 -2.100122761E-01 -3.254588533E-02 6.979036990E+04 1.007215074E+02 1.246795552E+00
 -2.112264214E-01 -2.396937234E-02 6.978661093E+04 1.007614962E+02 1.297228269E+00
 -1.897094217E-01 -2.961694551E-02 6.980415434E+04 1.005690429E+02 1.341773046E+00
 -1.908121923E-01 -2.184844430E-02 6.980019107E+04 1.006111915E+02 1.399266675E+00
 -1.711120228E-01 -2.693322548E-02 6.982000167E+04 1.003935216E+02 1.442375832E+00
 -1.721127787E-01 -1.990486811E-02 6.981582814E+04 1.004378765E+02 1.507873954E+00
 -1.540868640E-01 -2.447573162E-02 6.983821898E+04 1.001914310E+02 1.548774087E+00
 -1.549942334E-01 -1.812494985E-02 6.983382938E+04 1.002380340E+02 1.623336907E+00
 -1.385106799E-01 -2.222688050E-02 6.985915827E+04 9.995871775E+01 1.661124059E+00
 -1.393326139E-01 -1.649600999E-02 6.985454698E+04 1.000076037E+02 1.745942951E+00
 -1.242694339E-01 -2.017039460E-02 6.988322317E+04 9.969069780E+01 1.779555189E+00
 -1.250132576E-01 -1.500630787E-02 6.987838477E+04 9.974189490E+01 1.875968852E+00
 -1.112576489E-01 -1.829120584E-02 6.991087682E+04 9.938194880E+01 1.904168157E+00
 -1.119301078E-01 -1.364497190E-02 6.990580616E+04 9.943547619E+01 2.013682535E+00
 -9.937778413E-02 -1.657536620E-02 6.994265243E+04 9.902616161E+01 2.035023592E+00
 -9.998508830E-02 -1.240193496E-02 6.993734476E+04 9.908202391E+01 2.159336813E+00
 -8.853965763E-02 -1.500996513E-02 6.997916630E+04 9.861596412E+01 2.172112131E+00
 -8.908752170E-02 -1.126787483E-02 6.997361755E+04 9.867414728E+01 2.313143570E+00
 -7.865990890E-02 -1.358305327E-02 7.002113181E+04 9.814269452E+01 2.315330294E+00
 -7.915358978E-02 -1.023415928E-02 7.001533835E+04 9.820317150E+01 2.475263488E+00
 -6.966150031E-02 -1.228357201E-02 7.006937730E+04 9.759615877E+01 2.464391499E+00
 -7.010583195E-02 -9.292795513E-03 7.006333686E+04 9.765887812E+01 2.645747428E+00
 -6.147325399E-02 -1.110128864E-02 7.012486705E+04 9.696422344E+01 2.618790173E+00
 -6.187267959E-02 -8.436383595E-03 7.011858270E+04 9.702904388E+01 2.824506588E+00
 -5.402942183E-02 -1.002673649E-02 7.018874034E+04 9.623240754E+01 2.777746900E+00
 -5.438802371E-02 -7.658073705E-03 7.018222053E+04 9.629910702E+01 3.011211474E+00
 -4.726928627E-02 -9.051159436E-03 7.026232886E+04 9.538292909E+01 2.940112428E+00
 -4.759081356E-02 -6.951526560E-03 7.025558533E+04 9.545115938E+01 3.205229950E+00
 -4.113678974E-02 -8.166460976E-03 7.034719316E+04 9.439552583E+01 3.105634088E+00
 -4.142468400E-02 -6.310877129E-03 7.034023462E+04 9.446504851E+01 3.406883774E+00
 -3.558840820E-02 -7.316686838E-03 7.044499502E+04 9.324493364E+01 3.289095591E+00
 -3.584448067E-02 -5.686314461E-03 7.043776505E+04 9.331617787E+01 3.630662357E+00
 -3.060355719E-02 -6.334728176E-03 7.055781057E+04 9.190031146E+01 3.510755000E+00
 -3.082456110E-02 -4.924448419E-03 7.055019504E+04 9.197427130E+01 3.896440533E+00
 -2.609861904E-02 -5.447619726E-03 7.068864257E+04 9.031723192E+01 3.765947594E+00
 -2.628792962E-02 -4.236239602E-03 7.068055718E+04 9.039470133E+01 4.201222194E+00
 -2.203332672E-02 -4.647386712E-03 7.084140713E+04 8.843629919E+01 4.049061566E+00
 -2.219403607E-02 -3.615492235E-03 7.083277732E+04 8.851745911E+01 4.541129563E+00
 -1.837055624E-02 -3.926672333E-03 7.102062526E+04 8.617702882E+01 4.365060586E+00
 -1.850549545E-02 -3.056489577E-03 7.101139495E+04 8.626232595E+01 4.923356545E+00
 -1.507609206E-02 -3.278693110E-03 7.123277528E+04 8.343515860E+01 4.729325065E+00
 -1.518785169E-02 -2.553959640E-03 7.122279209E+04 8.352474161E+01 5.364284572E+00
 -1.211840950E-02 -2.697197258E-03 7.148530280E+04 8.003567576E+01 5.142284919E+00
 -1.220935850E-02 -2.103043168E-03 7.147452477E+04 8.013037503E+01 5.870919074E+00
 -9.468472974E-03 -2.176425855E-03 7.179137155E+04 7.575785645E+01 5.657093004E+00
 -9.540776192E-03 -1.699263721E-03 7.177941251E+04 7.585744184E+01 6.494113678E+00
 -7.099548808E-03 -1.711076595E-03 7.216137360E+04 7.012742093E+01 6.226776438E+00
 -7.155183138E-03 -1.338499712E-03 7.214843278E+04 7.023187145E+01 7.212577710E+00
 -4.987031684E-03 -1.296269940E-03 7.262145133E+04 6.263365248E+01 7.108853208E+00
 -5.027801044E-03 -1.016958228E-03 7.260632955E+04 6.274184954E+01 8.246335311E+00
 -3.108283744E-03 -9.275172816E-04 7.314277479E+04 5.195788025E+01 7.997854357E+00
 -3.135832887E-03 -7.311503254E-04 7.312672821E+04 5.206210933E+01 9.396053125E+00
 -1.442485389E-03 -6.006906613E-04 7.368036134E+04 3.855781820E+01 1.136559899E+01
 -1.458312678E-03 -4.778673247E-04 7.365906135E+04 3.870424799E+01 1.288364171E+01
 2.950318352E-05 -3.119902977E-04 7.395558293E+04 3.158660968E+01 1.445662266E+01
 2.403397564E-05 -2.541545121E-04 7.392792135E+04 3.177982540E+01 1.589210282E+01
 -4.904860300E+00 -3.743658139E-01 6.969654296E+04 1.017554908E+02 5.900569428E-03
 -4.531135126E+00 -3.336398761E-01 6.969659239E+04 1.017548043E+02 9.306628238E-03
 -4.184977348E+00 -2.959142021E-01 6.969668294E+04 1.017534803E+02 1.715923036E-02
 -3.864407293E+00 -2.609734151E-01 6.969675922E+04 1.017521986E+02 2.650371260E-02
 -3.567584668E+00 -2.286172994E-01 6.969684670E+04 1.017508210E+02 3.664145250E-02
 -3.290866700E+00 -2.091473905E-01 6.969697744E+04 1.017491241E+02 4.745531337E-02
 -3.034357345E+00 -1.930605659E-01 6.969714645E+04 1.017470804E+02 5.896312566E-02
 -2.796979341E+00 -1.781700332E-01 6.969733982E+04 1.017447911E+02 7.121784659E-02
 -2.577347948E+00 -1.643892686E-01 6.969756196E+04 1.017422024E+02 8.428457599E-02
 -2.374176502E+00 -1.516378736E-01 6.969781885E+04 1.017392522E+02 9.824331713E-02
 -2.186269576E+00 -1.398411480E-01 6.969811417E+04 1.017358955E+02 1.131815388E-01
 -2.012516621E+00 -1.289296926E-01 6.969845305E+04 1.017320734E+02 1.291933916E-01
 -1.851886043E+00 -1.188390396E-01 6.969884195E+04 1.017277144E+02 1.463812518E-01
 -1.703419683E+00 -1.095093084E-01 6.969928810E+04 1.017227385E+02 1.648557281E-01
 -1.566227682E+00 -1.008848850E-01 6.969979982E+04 1.017170532E+02 1.847357988E-01
 -1.439483702E+00 -9.291412469E-02 6.970038681E+04 1.017105514E+02 2.061492456E-01
 -1.322420470E+00 -8.554907384E-02 6.970106030E+04 1.017031088E+02 2.292329510E-01
 -1.214325637E+00 -7.874521242E-02 6.970183333E+04 1.016945813E+02 2.541332228E-01
 -1.114537918E+00 -7.246121354E-02 6.970272107E+04 1.016848018E+02 2.810064614E-01
 -1.022443505E+00 -6.665871992E-02 6.970374109E+04 1.016735760E+02 3.100190220E-01
 -9.374727221E-01 -6.130213595E-02 6.970491386E+04 1.016606793E+02 3.413481856E-01
 -8.590969156E-01 -5.635843399E-02 6.970626302E+04 1.016458476E+02 3.751826122E-01
 -7.868255616E-01 -5.179697423E-02 6.970781602E+04 1.016287778E+02 4.117200844E-01
 -7.202035715E-01 -4.758933687E-02 6.970960488E+04 1.016091190E+02 4.511694528E-01
 -6.588087862E-01 -4.370916599E-02 6.971166675E+04 1.015864618E+02 4.937567805E-01
 -6.022496446E-01 -4.013202409E-02 6.971404448E+04 1.015603323E+02 5.397204592E-01
 -5.501630141E-01 -3.683525657E-02 6.971678766E+04 1.015301813E+02 5.893046272E-01
 -5.022121732E-01 -3.379786560E-02 6.971995372E+04 1.014953728E+02 6.427659042E-01
 -4.580849337E-01 -3.100039242E-02 6.972360913E+04 1.014551703E+02 7.003766394E-01
 -4.174918950E-01 -2.842480765E-02 6.972783059E+04 1.014087229E+02 7.624211193E-01
 -3.801648201E-01 -2.605440910E-02 6.973270656E+04 1.013550478E+02 8.291948223E-01
 -3.458551253E-01 -2.387372626E-02 6.973833899E+04 1.012930101E+02 9.010054955E-01
 -3.143324756E-01 -2.186843132E-02 6.974484526E+04 1.012213009E+02 9.781731826E-01
 -2.853834790E-01 -2.002525609E-02 6.975236030E+04 1.011384118E+02 1.061030113E+00
 -2.588104718E-01 -1.833191448E-02 6.976103915E+04 1.010426050E+02 1.149920834E+00
 -2.344303901E-01 -1.677703016E-02 6.977105968E+04 1.009318800E+02 1.245202410E+00
 -2.120737200E-01 -1.535006918E-02 6.978262593E+04 1.008039337E+02 1.347244690E+00
 -1.915835224E-01 -1.404127715E-02 6.979597171E+04 1.006561153E+02 1.456430740E+00
 -1.728145256E-01 -1.284162079E-02 6.981136492E+04 1.004853716E+02 1.573157407E+00
 -1.556322835E-01 -1.174273363E-02 6.982911251E+04 1.002881848E+02 1.697835122E+00
 -1.399123915E-01 -1.073686568E-02 6.984956634E+04 1.000604931E+02 1.830890258E+00
 -1.255397597E-01 -9.816836833E-03 6.987312986E+04 9.979760508E+01 1.972758881E+00
 -1.124079359E-01 -8.975993817E-03 6.990026598E+04 9.949408741E+01 2.123890589E+00
 -1.004184784E-01 -8.208170549E-03 6.993150778E+04 9.914361284E+01 2.284746524E+00
 -8.948037194E-02 -7.507651694E-03 6.996747170E+04 9.873878772E+01 2.455784127E+00
 -7.950948582E-02 -6.869139222E-03 7.000887101E+04 9.827092990E+01 2.637450138E+00
 -7.042807086E-02 -6.287721772E-03 7.005653534E+04 9.772980656E+01 2.830145953E+00
 -6.216429182E-02 -5.758846638E-03 7.011143451E+04 9.710316928E+01 3.034220111E+00
 -5.465179350E-02 -5.278294111E-03 7.017471396E+04 9.637642837E+01 3.249861751E+00
 -4.782929783E-02 -4.842153930E-03 7.024770958E+04 9.553159362E+01 3.477087870E+00
 -4.164022986E-02 -4.446803741E-03 7.033197938E+04 9.454855639E+01 3.716760270E+00
 -3.603789209E-02 -4.048595606E-03 7.042908753E+04 9.340302442E+01 3.982588378E+00
 -3.099167326E-02 -3.507847253E-03 7.054098873E+04 9.206538627E+01 4.293874702E+00
 -2.643127357E-02 -3.019465483E-03 7.067071553E+04 9.049107017E+01 4.649724966E+00
 -2.231593057E-02 -2.579041487E-03 7.082220891E+04 8.861948498E+01 5.048233148E+00
 -1.860806353E-02 -2.182505970E-03 7.100000998E+04 8.637070886E+01 5.498893156E+00
 -1.527303602E-02 -1.826105263E-03 7.121041301E+04 8.364017181E+01 6.019112377E+00
 -1.227893559E-02 -1.506378949E-03 7.146102953E+04 8.025410623E+01 6.622952980E+00
 -9.596369497E-03 -1.220138913E-03 7.176441008E+04 7.599039733E+01 7.358730002E+00
 -7.198275203E-03 -9.644496792E-04 7.213188654E+04 7.037548370E+01 8.233392381E+00
 -5.059744709E-03 -7.366099547E-04 7.258727090E+04 6.289150562E+01 9.437942223E+00
 -3.157861647E-03 -5.341350707E-04 7.310581833E+04 5.222120594E+01 1.085581099E+01
 -1.471550258E-03 -3.547398845E-04 7.363207719E+04 3.889869911E+01 1.449866485E+01
 1.856476775E-05 -1.963187265E-04 7.389478676E+04 3.200007972E+01 1.746631388E+01
 -4.916318661E+00 -1.667794339E-01 6.969613016E+04 1.017571129E+02 6.219415541E-03
 -4.541382724E+00 -1.442356963E-01 6.969616415E+04 1.017566614E+02 9.648283564E-03
 -4.194103515E+00 -1.233510757E-01 6.969622707E+04 1.017557966E+02 1.754974480E-02
 -3.872494942E+00 -1.040064931E-01 6.969628134E+04 1.017549521E+02 2.695036771E-02
 -3.574710748E+00 -8.609125819E-02 6.969634649E+04 1.017540059E+02 3.715488848E-02
 -3.297394566E+00 -7.807316121E-02 6.969644855E+04 1.017527713E+02 4.805667415E-02
 -3.040380954E+00 -7.218636201E-02 6.969658402E+04 1.017512214E+02 5.967453404E-02
 -2.802536312E+00 -6.673509830E-02 6.969674156E+04 1.017494395E+02 7.205315820E-02
 -2.582473177E+00 -6.168791009E-02 6.969692506E+04 1.017473786E+02 8.525826607E-02
 -2.378902353E+00 -5.701556290E-02 6.969713995E+04 1.017449830E+02 9.937345373E-02
 -2.190626063E+00 -5.269089254E-02 6.969738980E+04 1.017422109E+02 1.144893279E-01
 -2.016531574E+00 -4.868866080E-02 6.969767941E+04 1.017390072E+02 1.307032992E-01
 -1.855585262E+00 -4.498542126E-02 6.969801492E+04 1.017353050E+02 1.481216800E-01
 -1.706827083E+00 -4.155939450E-02 6.969840325E+04 1.017310281E+02 1.668596271E-01
 -1.569365431E+00 -3.839035209E-02 6.969885238E+04 1.017260880E+02 1.870412853E-01
 -1.442372340E+00 -3.545950865E-02 6.969937169E+04 1.017203816E+02 2.088003771E-01
 -1.325079030E+00 -3.274942157E-02 6.969997209E+04 1.017137886E+02 2.322806939E-01
 -1.216771751E+00 -3.024389760E-02 6.970066630E+04 1.017061689E+02 2.576365869E-01
 -1.116787917E+00 -2.792790611E-02 6.970146911E+04 1.016973594E+02 2.850334403E-01
 -1.024512514E+00 -2.578749829E-02 6.970239778E+04 1.016871698E+02 3.146482805E-01
 -9.393747451E-01 -2.380973200E-02 6.970347239E+04 1.016753789E+02 3.466706041E-01
 -8.608449181E-01 -2.198260181E-02 6.970471632E+04 1.016617294E+02 3.813022723E-01
 -7.884315445E-01 -2.029497392E-02 6.970615671E+04 1.016459199E+02 4.187595174E-01
 -7.216786410E-01 -1.873652543E-02 6.970782511E+04 1.016276021E+02 4.592698325E-01
 -6.601632187E-01 -1.729768785E-02 6.970975818E+04 1.016063698E+02 5.030743156E-01
 -6.034929466E-01 -1.596959429E-02 6.971199864E+04 1.015817541E+02 5.504339518E-01
 -5.513039784E-01 -1.474403033E-02 6.971459593E+04 1.015532107E+02 6.016274213E-01
 -5.032589306E-01 -1.361338796E-02 6.971760713E+04 1.015201049E+02 6.569425829E-01
 -4.590450014E-01 -1.257062259E-02 6.972109824E+04 1.014817046E+02 7.166807145E-01
 -4.183722212E-01 -1.160921284E-02 6.972514572E+04 1.014371609E+02 7.811656182E-01
 -3.809718257E-01 -1.072312280E-02 6.972983782E+04 1.013854930E+02 8.507378844E-01
 -3.465947425E-01 -9.906766687E-03 6.973527624E+04 1.013255683E+02 9.257540117E-01
 -3.150101837E-01 -9.154975648E-03 6.974157810E+04 1.012560799E+02 1.006588811E+00
 -2.860043375E-01 -8.462966637E-03 6.974887810E+04 1.011755209E+02 1.093636122E+00
 -2.593791517E-01 -7.826313186E-03 6.975733098E+04 1.010821554E+02 1.187309236E+00
 -2.349512022E-01 -7.240917991E-03 6.976711435E+04 1.009739844E+02 1.288041915E+00
 -2.125506417E-01 -6.702987247E-03 6.977843189E+04 1.008487068E+02 1.396289632E+00
 -1.920202220E-01 -6.209006650E-03 6.979151702E+04 1.007036734E+02 1.512531142E+00
 -1.732143860E-01 -5.755719034E-03 6.980663716E+04 1.005358341E+02 1.637270228E+00
 -1.559984225E-01 -5.340103614E-03 6.982409865E+04 1.003416734E+02 1.771037634E+00
 -1.402476822E-01 -4.959356796E-03 6.984425259E+04 1.001171345E+02 1.914394933E+00
 -1.258468486E-01 -4.610874534E-03 6.986750154E+04 9.985752903E+01 2.067932258E+00
 -1.126892600E-01 -4.292236195E-03 6.989430739E+04 9.955742861E+01 2.232275042E+00
 -1.006762808E-01 -4.001189904E-03 6.992520196E+04 9.921051468E+01 2.408084841E+00
 -8.971671647E-02 -3.735639301E-03 6.996080010E+04 9.880940175E+01 2.596053483E+00
 -7.972627094E-02 -3.493631657E-03 7.000181331E+04 9.834541417E+01 2.796905804E+00
 -7.062704196E-02 -3.273347248E-03 7.004906948E+04 9.780832641E+01 3.011379169E+00
 -6.234705300E-02 -3.073089916E-03 7.010353616E+04 9.718589294E+01 3.240220829E+00
 -5.481981841E-02 -2.891278646E-03 7.016635717E+04 9.646352901E+01 3.484112630E+00
 -4.798393970E-02 -2.726440046E-03 7.023886601E+04 9.562321397E+01 3.743701853E+00
 -4.178273081E-02 -2.577201653E-03 7.032261826E+04 9.464490457E+01 4.020391367E+00
 -3.616803977E-02 -2.406094669E-03 7.041915406E+04 9.350450006E+01 4.327729929E+00
 -3.110437535E-02 -2.087130238E-03 7.053038327E+04 9.217280252E+01 4.684361633E+00
 -2.652820883E-02 -1.799178605E-03 7.065933115E+04 9.060535787E+01 5.090736536E+00
 -2.239863694E-02 -1.539623022E-03 7.080993600E+04 8.874135843E+01 5.546969780E+00
 -1.867794917E-02 -1.306046357E-03 7.098672151E+04 8.650118738E+01 6.064978421E+00
 -1.533138948E-02 -1.096217623E-03 7.119591119E+04 8.378051935E+01 6.663187892E+00
 -1.232693523E-02 -9.080792926E-04 7.144511000E+04 8.040618099E+01 7.362415972E+00
 -9.635092198E-03 -7.397353186E-04 7.174668576E+04 7.615619855E+01 8.208681582E+00
 -7.228704393E-03 -5.894398185E-04 7.211208355E+04 7.055854124E+01 9.234622648E+00
 -5.082777808E-03 -4.555863347E-04 7.256457589E+04 6.308748677E+01 1.061012919E+01
 -3.174316937E-03 -3.366974587E-04 7.308052494E+04 5.243669801E+01 1.228737723E+01
 -1.482173225E-03 -2.314143349E-04 7.360065078E+04 3.915146570E+01 1.609812692E+01
 1.309555987E-05 -1.384829409E-04 7.385795173E+04 3.227350957E+01 1.905046808E+01
 -4.919121367E+00 4.110405248E-02 6.969571479E+04 1.017587550E+02 6.450604694E-03
 -4.543638205E+00 4.544270293E-02 6.969573331E+04 1.017585382E+02 9.904066663E-03
 -4.195852154E+00 4.946509673E-02 6.969576833E+04 1.017581336E+02 1.785864585E-02
 -3.873774222E+00 5.319387671E-02 6.969580035E+04 1.017577276E+02 2.731688101E-02
 -3.575555453E+00 5.665009772E-02 6.969584323E+04 1.017572142E+02 3.758211950E-02
 -3.298128819E+00 5.319885822E-02 6.969591636E+04 1.017564476E+02 4.855789899E-02
 -3.041062514E+00 4.887013199E-02 6.969601769E+04 1.017554004E+02 6.026824550E-02
 -2.803169120E+00 4.486778492E-02 6.969613879E+04 1.017541349E+02 7.275417571E-02
 -2.583060886E+00 4.116812919E-02 6.969628304E+04 1.017526110E+02 8.608212751E-02
 -2.379448352E+00 3.774915719E-02 6.969645521E+04 1.017507802E+02 1.003385086E-01
 -2.191133493E+00 3.459042466E-02 6.969665873E+04 1.017486034E+02 1.156166246E-01
 -2.017003347E+00 3.167294165E-02 6.969689813E+04 1.017460302E+02 1.320168281E-01
 -1.856024078E+00 2.897907072E-02 6.969717915E+04 1.017429979E+02 1.496491205E-01
 -1.707235444E+00 2.649243207E-02 6.969750838E+04 1.017394346E+02 1.686330885E-01
 -1.569745654E+00 2.419781503E-02 6.969789347E+04 1.017352564E+02 1.890980202E-01
 -1.442726574E+00 2.208109549E-02 6.969834343E+04 1.017303642E+02 2.111836176E-01
 -1.325409265E+00 2.012915896E-02 6.969886881E+04 1.017246422E+02 2.350406183E-01
 -1.217079829E+00 1.832982888E-02 6.969948195E+04 1.017179548E+02 2.608313612E-01
 -1.117075547E+00 1.667179979E-02 6.970019727E+04 1.017101432E+02 2.887305466E-01
 -1.024781277E+00 1.514457513E-02 6.970103162E+04 1.017010219E+02 3.189259085E-01
 -9.396261042E-01 1.373840923E-02 6.970200471E+04 1.016903740E+02 3.516190024E-01
 -8.610802287E-01 1.244425350E-02 6.970313948E+04 1.016779465E+02 3.870260883E-01
 -7.886520609E-01 1.125370623E-02 6.970446270E+04 1.016634444E+02 4.253781861E-01
 -7.218855240E-01 1.015896599E-02 6.970600558E+04 1.016465236E+02 4.669245229E-01
 -6.603575423E-01 9.152788445E-03 6.970780431E+04 1.016267810E+02 5.119284255E-01
 -6.036757046E-01 8.228446179E-03 6.970990095E+04 1.016037493E+02 5.606681236E-01
 -5.514760900E-01 7.379691555E-03 6.971234463E+04 1.015768920E+02 6.134459872E-01
 -5.034212458E-01 6.600722332E-03 6.971519234E+04 1.015455812E+02 6.705900156E-01
 -4.591983060E-01 5.886149916E-03 6.971850964E+04 1.015090851E+02 7.324397684E-01
 -4.185172417E-01 5.230970067E-03 6.972237236E+04 1.014665607E+02 7.993505719E-01
 -3.811092335E-01 4.630535943E-03 6.972686838E+04 1.014170303E+02 8.717078445E-01
 -3.467251578E-01 4.080533313E-03 6.973209910E+04 1.013593643E+02 9.499194273E-01
 -3.151341794E-01 3.576957801E-03 6.973818123E+04 1.012922592E+02 1.034415345E+00
 -2.861224426E-01 3.116094019E-03 6.974524905E+04 1.012142118E+02 1.125651369E+00
 -2.594918543E-01 2.694496436E-03 6.975345686E+04 1.011234894E+02 1.224110336E+00
 -2.350589527E-01 2.308971825E-03 6.976298181E+04 1.010180964E+02 1.330303526E+00
 -2.126538555E-01 1.956563137E-03 6.977402702E+04 1.008957354E+02 1.444772904E+00
 -1.921192820E-01 1.634534640E-03 6.978682530E+04 1.007537619E+02 1.568093840E+00
 -1.733096447E-01 1.340358169E-03 6.980164329E+04 1.005891305E+02 1.700878327E+00
 -1.560902049E-01 1.071700315E-03 6.981878642E+04 1.003983320E+02 1.843778504E+00
 -1.403362872E-01 8.264104217E-04 6.983860467E+04 1.001773179E+02 1.997493554E+00
 -1.259325510E-01 6.025092438E-04 6.986149920E+04 9.992140756E+01 2.162768781E+00
 -1.127723127E-01 3.981781446E-04 6.988793034E+04 9.962518311E+01 2.340406430E+00
 -1.007569160E-01 2.117487341E-04 6.991842792E+04 9.928234227E+01 2.531272582E+00
 -8.979514769E-02 4.169286463E-05 6.995360414E+04 9.888551814E+01 2.736297148E+00
 -7.980269395E-02 -1.133870654E-04 6.999416745E+04 9.842605452E+01 2.956487721E+00
 -7.070163653E-02 -2.547675459E-04 7.004094234E+04 9.789375012E+01 3.192918897E+00
 -6.241998406E-02 -3.836131214E-04 7.009489188E+04 9.727638531E+01 3.446746932E+00
 -5.489123723E-02 -5.009852552E-04 7.015715524E+04 9.655941233E+01 3.719156001E+00
 -4.805398500E-02 -6.078508600E-04 7.022905948E+04 9.572483355E+01 4.011439172E+00
 -4.185152976E-02 -7.050904989E-04 7.031215692E+04 9.475261401E+01 4.325587117E+00
 -3.623435515E-02 -7.614269506E-04 7.040797770E+04 9.361877053E+01 4.674727270E+00
 -3.116217839E-02 -6.645467045E-04 7.051840141E+04 9.229436947E+01 5.076764807E+00
 -2.657831833E-02 -5.772975426E-04 7.064643275E+04 9.073511542E+01 5.533760325E+00
 -2.244180302E-02 -4.988569298E-04 7.079599011E+04 8.888032126E+01 6.047898229E+00
 -1.871485868E-02 -4.284618878E-04 7.097156087E+04 8.665067068E+01 6.633306445E+00
 -1.536267097E-02 -3.654059712E-04 7.117931430E+04 8.394217755E+01 7.309712347E+00
 -1.235316354E-02 -3.090362693E-04 7.142679459E+04 8.058234901E+01 8.103863319E+00
 -9.656792698E-03 -2.587504259E-04 7.172624377E+04 7.634946549E+01 9.061890005E+00
 -7.246356919E-03 -2.139936616E-04 7.208902996E+04 7.077438516E+01 1.023565070E+01
 -5.096820273E-03 -1.742557685E-04 7.253808255E+04 6.332416493E+01 1.178767787E+01
 -3.185148675E-03 -1.390679250E-04 7.305054241E+04 5.270504217E+01 1.370322352E+01
 -1.490158084E-03 -1.079987780E-04 7.356462451E+04 3.945824721E+01 1.767493150E+01
 7.626351982E-06 -8.064715534E-05 7.381735217E+04 3.259444963E+01 2.063713262E+01
 -4.913313371E+00 2.489252871E-01 6.969529694E+04 1.017604113E+02 6.566054984E-03
 -4.537943069E+00 2.350635293E-01 6.969529988E+04 1.017604319E+02 1.003810092E-02
 -4.190261572E+00 2.222280334E-01 6.969530659E+04 1.017604936E+02 1.803788583E-02
 -3.868280481E+00 2.103450392E-01 6.969531598E+04 1.017605313E+02 2.755526373E-02
 -3.570151394E+00 1.993459910E-01 6.969533639E+04 1.017604540E+02 3.789004654E-02
 -3.293099582E+00 1.844281401E-01 6.969538028E+04 1.017601601E+02 4.894687005E-02
 -3.036429803E+00 1.698871348E-01 6.969544699E+04 1.017596221E+02 6.075016294E-02
 -2.798903370E+00 1.564341835E-01 6.969553109E+04 1.017588800E+02 7.333939711E-02
 -2.579134672E+00 1.439904677E-01 6.969563548E+04 1.017579006E+02 8.678320167E-02
 -2.375836236E+00 1.324827536E-01 6.969576422E+04 1.017566431E+02 1.011711178E-01
 -2.187811883E+00 1.218430034E-01 6.969592059E+04 1.017550715E+02 1.165995708E-01
 -2.013950367E+00 1.120080130E-01 6.969610882E+04 1.017531395E+02 1.331724323E-01
 -1.853219447E+00 1.029190740E-01 6.969633426E+04 1.017507895E+02 1.510037358E-01
 -1.704660360E+00 9.452165950E-02 6.969660311E+04 1.017479541E+02 1.702176501E-01
 -1.567382692E+00 8.676513095E-02 6.969692267E+04 1.017445539E+02 1.909487016E-01
 -1.440559584E+00 7.960246529E-02 6.969730156E+04 1.017404945E+02 2.133426156E-01
 -1.323423283E+00 7.299000071E-02 6.969774993E+04 1.017356649E+02 2.375570764E-01
 -1.215260993E+00 6.688719999E-02 6.969827971E+04 1.017299342E+02 2.637624655E-01
 -1.115411015E+00 6.125643006E-02 6.969890491E+04 1.017231487E+02 2.921427117E-01
 -1.023259157E+00 5.606275684E-02 6.969964193E+04 1.017151279E+02 3.228961823E-01
 -9.382353847E-01 5.127375427E-02 6.970051002E+04 1.017056602E+02 3.562367331E-01
 -8.598107150E-01 4.685932654E-02 6.970153168E+04 1.016944977E+02 3.923944607E-01
 -7.874943167E-01 4.279154272E-02 6.970273318E+04 1.016813504E+02 4.316170095E-01
 -7.208308164E-01 3.904448296E-02 6.970414527E+04 1.016658796E+02 4.741703152E-01
 -6.593977911E-01 3.559409549E-02 6.970580372E+04 1.016476910E+02 5.203407325E-01
 -6.028034348E-01 3.241806358E-02 6.970775008E+04 1.016263199E+02 5.704343435E-01
 -5.506843880E-01 2.949568211E-02 6.971003268E+04 1.016012286E+02 6.247747158E-01
 -5.027037186E-01 2.680774280E-02 6.971270805E+04 1.015718009E+02 6.837120802E-01
 -4.585490434E-01 2.433642772E-02 6.971584166E+04 1.015373135E+02 7.476321148E-01
 -4.179307807E-01 2.206521048E-02 6.971950877E+04 1.014969248E+02 8.169351133E-01
 -3.805805258E-01 1.997876465E-02 6.972379648E+04 1.014496635E+02 8.920404546E-01
 -3.462495394E-01 1.806287885E-02 6.972880568E+04 1.013944041E+02 9.734059942E-01
 -3.147073423E-01 1.630437803E-02 6.973465266E+04 1.013298474E+02 1.061518766E+00
 -2.857404087E-01 1.469105069E-02 6.974147110E+04 1.012544950E+02 1.156895540E+00
 -2.591509508E-01 1.321158136E-02 6.974941471E+04 1.011666196E+02 1.260087460E+00