TITLE     = "fluent22.1.0  build-id: 10213"
VARIABLES = "X"
"Y"
"Pressure"
"X Velocity"
"Y Velocity"
DATASETAUXDATA Common.DensityVar="23"
DATASETAUXDATA Common.PressureVar="3"
DATASETAUXDATA Common.TemperatureVar="12"
DATASETAUXDATA Common.TurbulentDynamicViscosityVar="17"
DATASETAUXDATA Common.UVar="5"
DATASETAUXDATA Common.VectorVarsAreVelocity="TRUE"
DATASETAUXDATA Common.ViscosityVar="25"
DATASETAUXDATA Common.VVar="7"
ZONE T="fluid"
 STRANDID=1, SOLUTIONTIME=0.5675
 Nodes=10240, Elements=10080, ZONETYPE=FEQuadrilateral
 DATAPACKING=POINT
 DT=(DOUBLE DOUBLE DOUBLE DOUBLE DOUBLE )
 -4.856290020E+00 -7.872354469E-01 6.969738747E+04 1.017522312E+02 5.040160185E-03
 -4.486953088E+00 -7.103234382E-01 6.969746948E+04 1.017510595E+02 8.448085460E-03
 -4.884823481E+00 -5.813004056E-01 6.969697608E+04 1.017538092E+02 5.559613910E-03
 -4.512966811E+00 -5.224437975E-01 6.969704146E+04 1.017528797E+02 8.998801683E-03
 -4.144859811E+00 -6.390807209E-01 6.969761695E+04 1.017487961E+02 1.633449167E-02
 -4.168539684E+00 -4.679247207E-01 6.969716001E+04 1.017510821E+02 1.694196284E-02
 -3.828053767E+00 -5.731002987E-01 6.969773811E+04 1.017466180E+02 2.574948563E-02
 -3.849572326E+00 -4.174317859E-01 6.969725829E+04 1.017493462E+02 2.640969834E-02
 -3.534716278E+00 -5.120037806E-01 6.969787213E+04 1.017443419E+02 3.595157467E-02
 -3.554233649E+00 -3.706755109E-01 6.969736855E+04 1.017475149E+02 3.667741158E-02
 -3.260640235E+00 -4.697632387E-01 6.969806164E+04 1.017416884E+02 4.678183460E-02
 -3.278597328E+00 -3.397921652E-01 6.969752893E+04 1.017453320E+02 4.760424389E-02
 -3.006477812E+00 -4.333972693E-01 6.969829842E+04 1.017386318E+02 5.825742727E-02
 -3.023039832E+00 -3.135400651E-01 6.969773265E+04 1.017427708E+02 5.920584071E-02
 -2.771271672E+00 -3.997400241E-01 6.969856437E+04 1.017353009E+02 7.045816017E-02
 -2.786542679E+00 -2.892423632E-01 6.969796314E+04 1.017399511E+02 7.155004291E-02
 -2.553649750E+00 -3.685955107E-01 6.969886487E+04 1.017316301E+02 8.345103996E-02
 -2.567726271E+00 -2.667576652E-01 6.969822534E+04 1.017368118E+02 8.470398511E-02
 -2.352337155E+00 -3.397816146E-01 6.969920657E+04 1.017275485E+02 9.731075774E-02
 -2.365308718E+00 -2.459545876E-01 6.969852567E+04 1.017332854E+02 9.874558253E-02
 -2.166149401E+00 -3.131291322E-01 6.969959354E+04 1.017230042E+02 1.121209098E-01
 -2.178099032E+00 -2.267110609E-01 6.969886797E+04 1.017293232E+02 1.137613421E-01
 -1.993986104E+00 -2.884808703E-01 6.970003157E+04 1.017179295E+02 1.279714069E-01
 -2.004990786E+00 -2.089136795E-01 6.969925767E+04 1.017248617E+02 1.298444014E-01
 -1.834825109E+00 -2.656908082E-01 6.970052773E+04 1.017122449E+02 1.449590163E-01
 -1.844956215E+00 -1.924570976E-01 6.969970159E+04 1.017198250E+02 1.470952111E-01
 -1.687717026E+00 -2.446233179E-01 6.970108981E+04 1.017058625E+02 1.631874709E-01
 -1.697040717E+00 -1.772434664E-01 6.970020725E+04 1.017141289E+02 1.656218701E-01
 -1.551780140E+00 -2.251524373E-01 6.970172669E+04 1.016986824E+02 1.827676057E-01
 -1.560357737E+00 -1.631819103E-01 6.970078326E+04 1.017076770E+02 1.855403340E-01
 -1.426195674E+00 -2.071611944E-01 6.970244868E+04 1.016905896E+02 2.038177853E-01
 -1.434084002E+00 -1.501880396E-01 6.970143965E+04 1.017003580E+02 2.069747335E-01
 -1.310203377E+00 -1.905409780E-01 6.970326758E+04 1.016814525E+02 2.264634412E-01
 -1.317455088E+00 -1.381834963E-01 6.970218797E+04 1.016920436E+02 2.300574694E-01
 -1.203097418E+00 -1.751909524E-01 6.970419702E+04 1.016711200E+02 2.508376092E-01
 -1.209761290E+00 -1.270955325E-01 6.970304157E+04 1.016825860E+02 2.549297240E-01
 -1.104222563E+00 -1.610175116E-01 6.970525270E+04 1.016594167E+02 2.770813761E-01
 -1.110343778E+00 -1.168566166E-01 6.970401591E+04 1.016718142E+02 2.817411196E-01
 -1.012970621E+00 -1.479337726E-01 6.970645279E+04 1.016461415E+02 3.053431014E-01
 -1.018591021E+00 -1.074040683E-01 6.970512894E+04 1.016595301E+02 3.106506489E-01
 -9.287771284E-01 -1.358591030E-01 6.970781822E+04 1.016310632E+02 3.357780894E-01
 -9.339354569E-01 -9.867971742E-02 6.970640134E+04 1.016455037E+02 3.418271184E-01
 -8.511182693E-01 -1.247186814E-01 6.970937323E+04 1.016139148E+02 3.685496368E-01
 -8.558503954E-01 -9.062958767E-02 6.970785704E+04 1.016294693E+02 3.754471118E-01
 -7.795080078E-01 -1.144430888E-01 6.971114601E+04 1.015943859E+02 4.038316490E-01
 -7.838471326E-01 -8.320360146E-02 6.970952396E+04 1.016111218E+02 4.116960546E-01
 -7.134954193E-01 -1.049679276E-01 6.971316896E+04 1.015721175E+02 4.418033040E-01
 -7.174722686E-01 -7.635530558E-02 6.971143444E+04 1.015901056E+02 4.507729136E-01
 -6.526622075E-01 -9.623346783E-02 6.971547937E+04 1.015466975E+02 4.826480911E-01
 -6.563052111E-01 -7.004161568E-02 6.971362571E+04 1.015660073E+02 4.928868648E-01
 -5.966203938E-01 -8.818431690E-02 6.971812053E+04 1.015176469E+02 5.265582098E-01
 -5.999558521E-01 -6.422257849E-02 6.971614083E+04 1.015383506E+02 5.382515307E-01
 -5.450101685E-01 -8.076911307E-02 6.972114256E+04 1.014844120E+02 5.737325271E-01
 -5.480624068E-01 -5.886115040E-02 6.971902971E+04 1.015065836E+02 5.870896661E-01
 -4.974978908E-01 -7.394023957E-02 6.972460320E+04 1.014463536E+02 6.243747787E-01
 -5.002894032E-01 -5.392299127E-02 6.972235005E+04 1.014700674E+02 6.396357164E-01
 -4.537742291E-01 -6.765355866E-02 6.972856907E+04 1.014027339E+02 6.786929353E-01
 -4.563258117E-01 -4.937627246E-02 6.972616846E+04 1.014280640E+02 6.961325890E-01
 -4.135524309E-01 -6.186816389E-02 6.973311702E+04 1.013527007E+02 7.368989366E-01
 -4.158833058E-01 -4.519149795E-02 6.973056177E+04 1.013797210E+02 7.568304004E-01
 -3.765667137E-01 -5.654614948E-02 6.973833566E+04 1.012952701E+02 7.992077171E-01
 -3.786946442E-01 -4.134133769E-02 6.973561860E+04 1.013240540E+02 8.219870109E-01
 -3.425707684E-01 -5.165239547E-02 6.974432700E+04 1.012293079E+02 8.658359825E-01
 -3.445121657E-01 -3.780047234E-02 6.974144101E+04 1.012599273E+02 8.918675263E-01
 -3.113363679E-01 -4.715436766E-02 6.975120841E+04 1.011535064E+02 9.370011409E-01
 -3.131063904E-01 -3.454544856E-02 6.974814647E+04 1.011860313E+02 9.667435311E-01
 -2.826520732E-01 -4.302193119E-02 6.975911482E+04 1.010663588E+02 1.012920264E+00
 -2.842647184E-01 -3.155454418E-02 6.975587000E+04 1.011008571E+02 1.046892630E+00
 -2.563220296E-01 -3.922717698E-02 6.976820119E+04 1.009661301E+02 1.093808860E+00
 -2.577902199E-01 -2.880764244E-02 6.976476669E+04 1.010026668E+02 1.132597907E+00
 -2.321648488E-01 -3.574426009E-02 6.977864536E+04 1.008508229E+02 1.179879540E+00
 -2.335005106E-01 -2.628611496E-02 6.977501454E+04 1.008894596E+02 1.224147305E+00
 -2.100125687E-01 -3.254924919E-02 6.979065132E+04 1.007181377E+02 1.271340589E+00
 -2.112267063E-01 -2.397271265E-02 6.978681766E+04 1.007589327E+02 1.321833035E+00
 -1.897096868E-01 -2.961998652E-02 6.980445290E+04 1.005654275E+02 1.368394267E+00
 -1.908124504E-01 -2.185146416E-02 6.980041002E+04 1.006084348E+02 1.425950880E+00
 -1.711122615E-01 -2.693595765E-02 6.982031806E+04 1.003896437E+02 1.471235042E+00
 -1.721130110E-01 -1.990758148E-02 6.981605972E+04 1.004349126E+02 1.536799655E+00
 -1.540870776E-01 -2.447817046E-02 6.983855391E+04 1.001872720E+02 1.580045703E+00
 -1.549944411E-01 -1.812737214E-02 6.983407399E+04 1.002348472E+02 1.654678855E+00
 -1.385108696E-01 -2.222904274E-02 6.985951249E+04 9.995425693E+01 1.694996451E+00
 -1.393327984E-01 -1.649815783E-02 6.985480503E+04 1.000041764E+02 1.779889944E+00
 -1.242696012E-01 -2.017229797E-02 6.988359748E+04 9.968591178E+01 1.816232410E+00
 -1.250134202E-01 -1.500819885E-02 6.987865671E+04 9.973820700E+01 1.912725454E+00
 -1.112577953E-01 -1.829286878E-02 6.991127209E+04 9.937681105E+01 1.943871762E+00
 -1.119302502E-01 -1.364662429E-02 6.990609244E+04 9.943150480E+01 2.053470975E+00
 -9.937791122E-02 -1.657680757E-02 6.994306962E+04 9.902064146E+01 2.077994907E+00
 -9.998521185E-02 -1.240336747E-02 6.993764588E+04 9.907774256E+01 2.202399194E+00
 -8.853976702E-02 -1.501120397E-02 6.997960656E+04 9.861002578E+01 2.218615526E+00
 -8.908762804E-02 -1.126910631E-02 6.997393413E+04 9.866952483E+01 2.359745104E+00
 -7.866000220E-02 -1.358410852E-02 7.002159654E+04 9.813629517E+01 2.365656733E+00
 -7.915368050E-02 -1.023520852E-02 7.001567116E+04 9.819817072E+01 2.525696633E+00
 -6.966157911E-02 -1.228446228E-02 7.006986824E+04 9.758924743E+01 2.518862735E+00
 -7.010590859E-02 -9.293680931E-03 7.006368689E+04 9.765345431E+01 2.700335380E+00
 -6.147331984E-02 -1.110203198E-02 7.012538632E+04 9.695673778E+01 2.677763994E+00
 -6.187274366E-02 -8.437123081E-03 7.011895126E+04 9.702314160E+01 2.883610257E+00
 -5.402947625E-02 -1.002735022E-02 7.018929079E+04 9.622427186E+01 2.841625810E+00
 -5.438807667E-02 -7.658684405E-03 7.018260942E+04 9.629265968E+01 3.075236810E+00
 -4.726933068E-02 -9.051659933E-03 7.026291379E+04 9.537404512E+01 3.009351526E+00
 -4.759085681E-02 -6.952024723E-03 7.025599659E+04 9.544407975E+01 3.274635423E+00
 -4.113682549E-02 -8.166863599E-03 7.034781591E+04 9.438580356E+01 3.180757659E+00
 -4.142471884E-02 -6.311277977E-03 7.034067016E+04 9.445725814E+01 3.482196583E+00
 -3.558843651E-02 -7.317005753E-03 7.044565217E+04 9.323431267E+01 3.370719549E+00
 -3.584450828E-02 -5.686632070E-03 7.043822021E+04 9.330762419E+01 3.712504111E+00
 -3.060357914E-02 -6.334976244E-03 7.055848800E+04 9.188880670E+01 3.599609237E+00
 -3.082458254E-02 -4.924695631E-03 7.055065513E+04 9.196497207E+01 3.985544832E+00
 -2.609863571E-02 -5.447808815E-03 7.068933121E+04 9.030482951E+01 3.862915460E+00
 -2.628794592E-02 -4.236428162E-03 7.068101136E+04 9.038465290E+01 4.298468742E+00
 -2.203333908E-02 -4.647527430E-03 7.084210224E+04 8.842278306E+01 4.155175270E+00
 -2.219404817E-02 -3.615632652E-03 7.083321835E+04 8.850647077E+01 4.647560579E+00
 -1.837056514E-02 -3.926774051E-03 7.102132782E+04 8.616225215E+01 4.481687686E+00
 -1.850550417E-02 -3.056591145E-03 7.101181976E+04 8.625026773E+01 5.040341338E+00
 -1.507609822E-02 -3.278764012E-03 7.123346765E+04 8.341853720E+01 4.857978661E+00
 -1.518785775E-02 -2.554030484E-03 7.122318084E+04 8.351107948E+01 5.493398216E+00
 -1.211841358E-02 -2.697244403E-03 7.148601424E+04 8.001716848E+01 5.285629494E+00
 -1.220936252E-02 -2.103090306E-03 7.147489498E+04 8.011506423E+01 6.014777254E+00
 -9.468475504E-03 -2.176455256E-03 7.179203390E+04 7.573492799E+01 5.816832161E+00
 -9.540778687E-03 -1.699293139E-03 7.177969864E+04 7.583817548E+01 6.654724726E+00
 -7.099550236E-03 -1.711093303E-03 7.216223820E+04 7.009953910E+01 6.412448664E+00
 -7.155184550E-03 -1.338516441E-03 7.214882018E+04 7.020823069E+01 7.399009134E+00
 -4.987032379E-03 -1.296278128E-03 7.262213572E+04 6.258839960E+01 7.317786740E+00
 -5.027801733E-03 -1.016966434E-03 7.260644054E+04 6.270369309E+01 8.458543473E+00
 -3.108284001E-03 -9.275203340E-04 7.314327310E+04 5.190971616E+01 8.338089441E+00
 -3.135833143E-03 -7.311533872E-04 7.312615773E+04 5.202719553E+01 9.731431672E+00
 -1.442485437E-03 -6.006912327E-04 7.367428828E+04 3.869305750E+01 1.171111859E+01
 -1.458312726E-03 -4.778678985E-04 7.365237943E+04 3.884137187E+01 1.322255406E+01
 2.950318352E-05 -3.119902977E-04 7.394265726E+04 3.189198985E+01 1.468151605E+01
 2.403397564E-05 -2.541545121E-04 7.391533707E+04 3.207222039E+01 1.611978954E+01
 -4.904860300E+00 -3.743658139E-01 6.969655786E+04 1.017554323E+02 6.009846432E-03
 -4.531135245E+00 -3.336413311E-01 6.969660760E+04 1.017547393E+02 9.476451580E-03
 -4.184977573E+00 -2.959169436E-01 6.969669866E+04 1.017534028E+02 1.746859115E-02
 -3.864407611E+00 -2.609772882E-01 6.969677525E+04 1.017521096E+02 2.697905155E-02
 -3.567585066E+00 -2.286221614E-01 6.969686305E+04 1.017507211E+02 3.729698454E-02
 -3.290867169E+00 -2.091531153E-01 6.969699454E+04 1.017490112E+02 4.830346878E-02
 -3.034357875E+00 -1.930670336E-01 6.969716464E+04 1.017469518E+02 6.001667448E-02
 -2.796979922E+00 -1.781771326E-01 6.969735917E+04 1.017446465E+02 7.249038166E-02
 -2.577348573E+00 -1.643968974E-01 6.969758256E+04 1.017420408E+02 8.579084549E-02
 -2.374177162E+00 -1.516459380E-01 6.969784083E+04 1.017390727E+02 9.999950106E-02
 -2.186270265E+00 -1.398495620E-01 6.969813765E+04 1.017356968E+02 1.152053649E-01
 -2.012517333E+00 -1.289383773E-01 6.969847814E+04 1.017318543E+02 1.315042539E-01
 -1.851886771E+00 -1.188479228E-01 6.969886879E+04 1.017274735E+02 1.490003557E-01
 -1.703420422E+00 -1.095183239E-01 6.969931684E+04 1.017224741E+02 1.678062482E-01
 -1.566228428E+00 -1.008939723E-01 6.969983060E+04 1.017167636E+02 1.880430215E-01
 -1.439484449E+00 -9.292322845E-02 6.970041978E+04 1.017102346E+02 2.098407546E-01
 -1.322421215E+00 -8.555814360E-02 6.970109563E+04 1.017027628E+02 2.333387970E-01
 -1.214326375E+00 -7.875420224E-02 6.970187122E+04 1.016942037E+02 2.586861303E-01
 -1.114538647E+00 -7.247008166E-02 6.970276169E+04 1.016843902E+02 2.860419281E-01
 -1.022444222E+00 -6.666742858E-02 6.970378465E+04 1.016731277E+02 3.155757673E-01
 -9.374734229E-01 -6.131065108E-02 6.970496057E+04 1.016601912E+02 3.474682130E-01
 -8.590975984E-01 -5.636672508E-02 6.970631310E+04 1.016453168E+02 3.819113180E-01
 -7.868262242E-01 -5.180501411E-02 6.970786976E+04 1.016282017E+02 4.191068172E-01
 -7.202042119E-01 -4.759710163E-02 6.970966251E+04 1.016084929E+02 4.592683180E-01
 -6.588094027E-01 -4.371663482E-02 6.971172844E+04 1.015857815E+02 5.026243914E-01
 -6.022502357E-01 -4.013917919E-02 6.971411054E+04 1.015595943E+02 5.494185509E-01
 -5.501635786E-01 -3.684208310E-02 6.971685843E+04 1.015293804E+02 5.999017661E-01
 -5.022127100E-01 -3.380435158E-02 6.972002948E+04 1.014945043E+02 6.543344672E-01
 -4.580854421E-01 -3.100652865E-02 6.972369010E+04 1.014542295E+02 7.129946884E-01
 -4.174923743E-01 -2.843058772E-02 6.972791704E+04 1.014077043E+02 7.761731532E-01
 -3.801652701E-01 -2.605982925E-02 6.973279878E+04 1.013539453E+02 8.441716846E-01
 -3.458555458E-01 -2.387878536E-02 6.973843725E+04 1.012918175E+02 9.173047990E-01
 -3.143328666E-01 -2.187313077E-02 6.974494980E+04 1.012200114E+02 9.958999133E-01
 -2.853838408E-01 -2.002959972E-02 6.975247137E+04 1.011370181E+02 1.080297139E+00
 -2.588108048E-01 -1.833590847E-02 6.976115696E+04 1.010410994E+02 1.170849450E+00
 -2.344306950E-01 -1.678068287E-02 6.977118443E+04 1.009302539E+02 1.267922984E+00
 -2.120739977E-01 -1.535339102E-02 6.978275778E+04 1.008021778E+02 1.371897402E+00
 -1.915837737E-01 -1.404428037E-02 6.979611080E+04 1.006542195E+02 1.483166419E+00
 -1.728147517E-01 -1.284431931E-02 6.981151135E+04 1.004833247E+02 1.602138510E+00
 -1.556324856E-01 -1.174514280E-02 6.982926638E+04 1.002859740E+02 1.729236894E+00
 -1.399125710E-01 -1.073900205E-02 6.984972770E+04 1.000581042E+02 1.864902111E+00
 -1.255399178E-01 -9.818717894E-03 6.987329875E+04 9.979502158E+01 2.009586146E+00
 -1.124080743E-01 -8.977637733E-03 6.990044244E+04 9.949129026E+01 2.163756410E+00
 -1.004185986E-01 -8.209595900E-03 6.993169182E+04 9.914057995E+01 2.327894419E+00
 -8.948047536E-02 -7.508877213E-03 6.996766337E+04 9.873549293E+01 2.502480912E+00
 -7.950957406E-02 -6.870183544E-03 7.000907041E+04 9.826734191E+01 2.687990174E+00
 -7.042814542E-02 -6.288603200E-03 7.005674269E+04 9.772588730E+01 2.884854027E+00
 -6.216435417E-02 -5.759582930E-03 7.011165028E+04 9.709887038E+01 3.093460969E+00
 -5.465184506E-02 -5.278902293E-03 7.017493884E+04 9.637169292E+01 3.314046353E+00
 -4.782933994E-02 -4.842650138E-03 7.024794423E+04 9.552634564E+01 3.546679674E+00
 -4.164026379E-02 -4.447203094E-03 7.033222427E+04 9.454272912E+01 3.792292355E+00
 -3.603791901E-02 -4.048912110E-03 7.042933660E+04 9.339657698E+01 4.064672684E+00
 -3.099169419E-02 -3.508093732E-03 7.054122667E+04 9.205833924E+01 4.383243248E+00
 -2.643128951E-02 -3.019653583E-03 7.067093003E+04 9.048342624E+01 4.747269913E+00
 -2.231594241E-02 -2.579181636E-03 7.082239025E+04 8.861107722E+01 5.155017486E+00
 -1.860807208E-02 -2.182607399E-03 7.100015095E+04 8.636142978E+01 5.616286959E+00
 -1.527304197E-02 -1.826176050E-03 7.121049082E+04 8.362953605E+01 6.148760825E+00
 -1.227893954E-02 -1.506426077E-03 7.146105088E+04 8.024207721E+01 6.767447295E+00
 -9.596371955E-03 -1.220168341E-03 7.176430988E+04 7.597484671E+01 7.520503200E+00
 -7.198276598E-03 -9.644664257E-04 7.213178806E+04 7.035611371E+01 8.421279666E+00
 -5.059745391E-03 -7.366181756E-04 7.258677167E+04 6.286094727E+01 9.654830228E+00
 -3.157861900E-03 -5.341381411E-04 7.310414411E+04 5.219766760E+01 1.118591158E+01
 -1.471550305E-03 -3.547404608E-04 7.362476332E+04 3.903422849E+01 1.482926861E+01
 1.856476775E-05 -1.963187265E-04 7.388249802E+04 3.227722795E+01 1.769608110E+01
 -4.916318661E+00 -1.667794339E-01 6.969613781E+04 1.017570831E+02 6.331138998E-03
 -4.541382842E+00 -1.442371461E-01 6.969617185E+04 1.017566291E+02 9.820502826E-03
 -4.194103737E+00 -1.233538082E-01 6.969623483E+04 1.017557598E+02 1.786139160E-02
 -3.872495256E+00 -1.040103543E-01 6.969628904E+04 1.017549114E+02 2.742791414E-02
 -3.574711141E+00 -8.609610605E-02 6.969635415E+04 1.017539618E+02 3.781261606E-02
 -3.297395030E+00 -7.807887028E-02 6.969645646E+04 1.017527224E+02 4.890717692E-02
 -3.040381478E+00 -7.219281253E-02 6.969659244E+04 1.017511655E+02 6.073074707E-02
 -2.802536886E+00 -6.674217915E-02 6.969675053E+04 1.017493764E+02 7.332869685E-02
 -2.582473794E+00 -6.169551923E-02 6.969693461E+04 1.017473080E+02 8.676788170E-02
 -2.378903006E+00 -5.702360666E-02 6.969715015E+04 1.017449043E+02 1.011333508E-01
 -2.190626744E+00 -5.269928500E-02 6.969740069E+04 1.017421233E+02 1.165172650E-01
 -2.016532277E+00 -4.869732319E-02 6.969769106E+04 1.017389102E+02 1.330187006E-01
 -1.855585981E+00 -4.499428140E-02 6.969802738E+04 1.017351978E+02 1.507457876E-01
 -1.706827814E+00 -4.156838631E-02 6.969841658E+04 1.017309097E+02 1.698156511E-01
 -1.569366167E+00 -3.839941512E-02 6.969886666E+04 1.017259577E+02 1.903545546E-01
 -1.442373078E+00 -3.546858769E-02 6.969938698E+04 1.017202382E+02 2.124985166E-01
 -1.325079765E+00 -3.275846623E-02 6.969998847E+04 1.017136309E+02 2.363937913E-01
 -1.216772479E+00 -3.025286202E-02 6.970068385E+04 1.017059958E+02 2.621973956E-01
 -1.116788636E+00 -2.793674865E-02 6.970148792E+04 1.016971693E+02 2.900775907E-01
 -1.024513220E+00 -2.579618124E-02 6.970241794E+04 1.016869613E+02 3.202144777E-01
 -9.393754354E-01 -2.381822139E-02 6.970349400E+04 1.016751502E+02 3.528008846E-01
 -8.608455904E-01 -2.199086722E-02 6.970473946E+04 1.016614788E+02 3.880418845E-01
 -7.884321965E-01 -2.030298830E-02 6.970618152E+04 1.016456463E+02 4.261578165E-01
 -7.216792709E-01 -1.874426496E-02 6.970785174E+04 1.016273025E+02 4.673812516E-01
 -6.601638247E-01 -1.730513181E-02 6.970978669E+04 1.016060407E+02 5.119569466E-01
 -6.034935272E-01 -1.597672501E-02 6.971202907E+04 1.015813943E+02 5.601482642E-01
 -5.513045325E-01 -1.475083305E-02 6.971462846E+04 1.015528174E+02 6.122403851E-01
 -5.032594573E-01 -1.361985080E-02 6.971764190E+04 1.015196746E+02 6.685282152E-01
 -4.590454998E-01 -1.257673647E-02 6.972113532E+04 1.014812342E+02 7.293173525E-01
 -4.183726909E-01 -1.161497143E-02 6.972518515E+04 1.014366473E+02 7.949375235E-01
 -3.809722663E-01 -1.072852244E-02 6.972987970E+04 1.013849321E+02 8.657359468E-01
 -3.465951539E-01 -9.911806321E-03 6.973532065E+04 1.013249558E+02 9.420759370E-01
 -3.150105660E-01 -9.159656743E-03 6.974162507E+04 1.012554114E+02 1.024339628E+00
 -2.860046911E-01 -8.467293094E-03 6.974892762E+04 1.011747914E+02 1.112928749E+00
 -2.593794770E-01 -7.830291217E-03 6.975738305E+04 1.010813596E+02 1.208265028E+00
 -2.349514998E-01 -7.244555990E-03 6.976716891E+04 1.009731162E+02 1.310791304E+00
 -2.125509125E-01 -6.706295630E-03 6.977848884E+04 1.008477595E+02 1.420972869E+00
 -1.920204671E-01 -6.211997676E-03 6.979157623E+04 1.007026398E+02 1.539299139E+00
 -1.732146063E-01 -5.758406603E-03 6.980669843E+04 1.005347057E+02 1.666285537E+00
 -1.559986193E-01 -5.342503046E-03 6.982416175E+04 1.003404407E+02 1.802475618E+00
 -1.402478569E-01 -4.961484591E-03 6.984431722E+04 1.001157867E+02 1.948445139E+00
 -1.258470025E-01 -4.612748120E-03 6.986756735E+04 9.985605329E+01 2.104800181E+00
 -1.126893947E-01 -4.293873668E-03 6.989437397E+04 9.955581008E+01 2.272184051E+00
 -1.006763976E-01 -4.002609766E-03 6.992526883E+04 9.920873573E+01 2.451278735E+00
 -8.971681709E-02 -3.736860200E-03 6.996086675E+04 9.880744135E+01 2.642799377E+00
 -7.972635678E-02 -3.494672140E-03 7.000187919E+04 9.834324687E+01 2.847498289E+00
 -7.062711450E-02 -3.274225529E-03 7.004913403E+04 9.780592106E+01 3.066144203E+00
 -6.234711368E-02 -3.073823666E-03 7.010359890E+04 9.718320978E+01 3.299523683E+00
 -5.481986860E-02 -2.891884805E-03 7.016641769E+04 9.646052059E+01 3.548364612E+00
 -4.798398072E-02 -2.726934670E-03 7.023892370E+04 9.561981598E+01 3.813369303E+00
 -4.178276389E-02 -2.577599788E-03 7.032267213E+04 9.464106090E+01 4.096005769E+00
 -3.616806602E-02 -2.406410267E-03 7.041919689E+04 9.350018172E+01 4.409913701E+00
 -3.110439578E-02 -2.087376105E-03 7.053039856E+04 9.216804071E+01 4.773850224E+00
 -2.652822441E-02 -1.799366311E-03 7.065930483E+04 9.060016401E+01 5.188412028E+00
 -2.239864853E-02 -1.539762933E-03 7.080985634E+04 8.873558424E+01 5.653911876E+00
 -1.867795755E-02 -1.306147656E-03 7.098657754E+04 8.649475122E+01 6.182549796E+00
 -1.533139532E-02 -1.096288351E-03 7.119567612E+04 8.377299037E+01 6.793091365E+00
 -1.232693912E-02 -9.081264022E-04 7.144478006E+04 8.039756146E+01 7.507163706E+00
 -9.635094620E-03 -7.397647507E-04 7.174619265E+04 7.614453369E+01 8.371076079E+00
 -7.228705769E-03 -5.894565765E-04 7.211149692E+04 7.054360813E+01 9.423316278E+00
 -5.082778483E-03 -4.555945671E-04 7.256345168E+04 6.306496044E+01 1.083027469E+01
 -3.174317188E-03 -3.367005367E-04 7.307773042E+04 5.242462660E+01 1.260902622E+01
 -1.482173272E-03 -2.314149135E-04 7.359270695E+04 3.928484355E+01 1.641866602E+01
 1.309555987E-05 -1.384829409E-04 7.384595929E+04 3.253482296E+01 1.928298162E+01
 -4.919121367E+00 4.110405248E-02 6.969571519E+04 1.017587539E+02 6.563195573E-03
 -4.543638321E+00 4.544125570E-02 6.969573351E+04 1.017585387E+02 1.007715959E-02
 -4.195852374E+00 4.946236877E-02 6.969576812E+04 1.017581375E+02 1.817115557E-02
 -3.873774532E+00 5.319002145E-02 6.969579972E+04 1.017577352E+02 2.779523639E-02
 -3.575555843E+00 5.664525656E-02 6.969584218E+04 1.017572259E+02 3.824054511E-02
 -3.298129278E+00 5.319315676E-02 6.969591509E+04 1.017564625E+02 4.940901930E-02
 -3.041063033E+00 4.886368995E-02 6.969601636E+04 1.017554170E+02 6.132509263E-02
 -2.803169689E+00 4.486071332E-02 6.969613739E+04 1.017541534E+02 7.403040356E-02
 -2.583061498E+00 4.116053000E-02 6.969628154E+04 1.017526314E+02 8.759250873E-02
 -2.379448999E+00 3.774112402E-02 6.969645362E+04 1.017508023E+02 1.020992752E-01
 -2.191134168E+00 3.458204336E-02 6.969665704E+04 1.017486271E+02 1.176455626E-01
 -2.017004043E+00 3.166429094E-02 6.969689632E+04 1.017460554E+02 1.343333842E-01
 -1.856024789E+00 2.897022272E-02 6.969717722E+04 1.017430245E+02 1.522745562E-01
 -1.707236166E+00 2.648345283E-02 6.969750631E+04 1.017394626E+02 1.715906341E-01
 -1.569746382E+00 2.418876494E-02 6.969789125E+04 1.017352855E+02 1.924130295E-01
 -1.442727303E+00 2.207202972E-02 6.969834103E+04 1.017303943E+02 2.148837380E-01
 -1.325409991E+00 2.012012784E-02 6.969886623E+04 1.017246731E+02 2.391559690E-01
 -1.217080549E+00 1.832087824E-02 6.969947916E+04 1.017179862E+02 2.653947339E-01
 -1.117076257E+00 1.666297124E-02 6.970019426E+04 1.017101749E+02 2.937775774E-01
 -1.024781973E+00 1.513590631E-02 6.970102838E+04 1.017010534E+02 3.244953704E-01
 -9.396267850E-01 1.372993406E-02 6.970200121E+04 1.016904051E+02 3.577529155E-01
 -8.610808914E-01 1.243600235E-02 6.970313569E+04 1.016779767E+02 3.937699741E-01
 -7.886527033E-01 1.124570610E-02 6.970445861E+04 1.016634727E+02 4.327815891E-01
 -7.218861442E-01 1.015124066E-02 6.970600118E+04 1.016465499E+02 4.750402054E-01
 -6.603581387E-01 9.145358556E-03 6.970779955E+04 1.016268043E+02 5.208150938E-01
 -6.036762757E-01 8.221329362E-03 6.970989575E+04 1.016037686E+02 5.703893315E-01
 -5.514766347E-01 7.372902498E-03 6.971233894E+04 1.015769065E+02 6.240671107E-01
 -5.034217630E-01 6.594272860E-03 6.971518610E+04 1.015455889E+02 6.821834312E-01
 -4.591987952E-01 5.880049049E-03 6.971850277E+04 1.015090853E+02 7.450851267E-01
 -4.185177024E-01 5.225224086E-03 6.972236474E+04 1.014665520E+02 8.131323608E-01
 -3.811096654E-01 4.625148455E-03 6.972685989E+04 1.014170110E+02 8.867168298E-01
 -3.467255608E-01 4.075505321E-03 6.973208961E+04 1.013593321E+02 9.662534443E-01
 -3.151345536E-01 3.572287789E-03 6.973817056E+04 1.012922120E+02 1.052179576E+00
 -2.861227884E-01 3.111778046E-03 6.974523698E+04 1.012141468E+02 1.144958851E+00
 -2.594921723E-01 2.690528253E-03 6.975344314E+04 1.011234035E+02 1.245082571E+00
 -2.350592435E-01 2.305343011E-03 6.976296612E+04 1.010179862E+02 1.353071120E+00
 -2.126541199E-01 1.953263255E-03 6.977400902E+04 1.008955969E+02 1.469476305E+00
 -1.921195211E-01 1.631551420E-03 6.978680456E+04 1.007535904E+02 1.594884188E+00
 -1.733098596E-01 1.337677707E-03 6.980161932E+04 1.005889206E+02 1.729918441E+00
 -1.560903967E-01 1.069307295E-03 6.981875865E+04 1.003980773E+02 1.875244071E+00
 -1.403364574E-01 8.242883586E-04 6.983857245E+04 1.001770109E+02 2.031574498E+00
 -1.259327010E-01 6.006407308E-04 6.986146179E+04 9.992103922E+01 2.199671050E+00
 -1.127724438E-01 3.965451146E-04 6.988788687E+04 9.962474272E+01 2.380354004E+00
 -1.007570298E-01 2.103327206E-04 6.991837742E+04 9.928181679E+01 2.574509818E+00
 -8.979524561E-02 4.047525946E-05 6.995354552E+04 9.888489166E+01 2.783091923E+00
 -7.980277749E-02 -1.144247652E-04 6.999409949E+04 9.842530743E+01 3.007135639E+00
 -7.070170713E-02 -2.556435072E-04 7.004086371E+04 9.789285819E+01 3.247747657E+00
 -6.242004312E-02 -3.843449657E-04 7.009480113E+04 9.727531733E+01 3.506123258E+00
 -5.489128610E-02 -5.015898746E-04 7.015705084E+04 9.655813003E+01 3.783492752E+00
 -4.805402495E-02 -6.083442622E-04 7.022893955E+04 9.572328530E+01 4.081206059E+00
 -4.185156198E-02 -7.054876828E-04 7.031201886E+04 9.475075376E+01 4.401317809E+00
 -3.623438074E-02 -7.617418336E-04 7.040781342E+04 9.361657653E+01 4.757054298E+00
 -3.116219833E-02 -6.647920746E-04 7.051819332E+04 9.229188256E+01 5.166427148E+00
 -2.657833355E-02 -5.774849180E-04 7.064616484E+04 9.073236010E+01 5.631629391E+00
 -2.244181436E-02 -4.989966332E-04 7.079564818E+04 8.887716914E+01 6.155065869E+00
 -1.871486690E-02 -4.285630662E-04 7.097113033E+04 8.664706669E+01 6.751137878E+00
 -1.536267670E-02 -3.654766360E-04 7.117876353E+04 8.393774066E+01 7.439978204E+00
 -1.235316736E-02 -3.090833537E-04 7.142610980E+04 8.057712963E+01 8.249023827E+00
 -9.656795084E-03 -2.587798541E-04 7.172534875E+04 7.634175862E+01 9.225005243E+00
 -7.246358278E-03 -2.140104256E-04 7.208794078E+04 7.076404409E+01 1.042510098E+01
 -5.096820940E-03 -1.742640094E-04 7.253632235E+04 6.330968695E+01 1.201007219E+01
 -3.185148925E-03 -1.390710096E-04 7.304671504E+04 5.270419383E+01 1.401840298E+01
 -1.490158131E-03 -1.079993590E-04 7.355614256E+04 3.958945027E+01 1.798747704E+01
 7.626351982E-06 -8.064715534E-05 7.380565650E+04 3.284023474E+01 2.087065275E+01
 -4.913313371E+00 2.489252871E-01 6.969529010E+04 1.017604390E+02 6.677487374E-03
 -4.537943184E+00 2.350620825E-01 6.969529258E+04 1.017604651E+02 1.020994733E-02
 -4.190261790E+00 2.222253057E-01 6.969529841E+04 1.017605382E+02 1.834901537E-02
 -3.868280789E+00 2.103411838E-01 6.969530700E+04 1.017605871E+02 2.803221895E-02
 -3.570151781E+00 1.993411493E-01 6.969532664E+04 1.017605215E+02 3.854712118E-02
 -3.293100037E+00 1.844224382E-01 6.969536982E+04 1.017602389E+02 4.979668729E-02
 -3.036430318E+00 1.698806927E-01 6.969543589E+04 1.017597114E+02 6.180573657E-02
 -2.798903934E+00 1.564271121E-01 6.969551930E+04 1.017589802E+02 7.461434394E-02
 -2.579135279E+00 1.439828689E-01 6.969562293E+04 1.017580121E+02 8.829226564E-02
 -2.375836876E+00 1.324747210E-01 6.969575084E+04 1.017567661E+02 1.029305126E-01
 -2.187812551E+00 1.218346230E-01 6.969590631E+04 1.017552066E+02 1.186270705E-01
 -2.013951057E+00 1.119993634E-01 6.969609356E+04 1.017532871E+02 1.354874761E-01
 -1.853220152E+00 1.029102273E-01 6.969631792E+04 1.017509502E+02 1.536275827E-01
 -1.704661075E+00 9.451268170E-02 6.969658561E+04 1.017481286E+02 1.731735319E-01
 -1.567383412E+00 8.675608250E-02 6.969690392E+04 1.017447427E+02 1.942619771E-01
 -1.440560305E+00 7.959340134E-02 6.969728145E+04 1.017406984E+02 2.170409400E-01
 -1.323424001E+00 7.298097160E-02 6.969772836E+04 1.017358846E+02 2.416705804E-01
 -1.215261704E+00 6.687825153E-02 6.969825656E+04 1.017301705E+02 2.683239457E-01
 -1.115411716E+00 6.124760385E-02 6.969888006E+04 1.017234024E+02 2.971878384E-01
 -1.023259845E+00 5.605409054E-02 6.969961526E+04 1.017153999E+02 3.284637140E-01
 -9.382360569E-01 5.126528178E-02 6.970048138E+04 1.017059512E+02 3.623687006E-01
 -8.598113690E-01 4.685107822E-02 6.970150092E+04 1.016948086E+02 3.991364127E-01
 -7.874949503E-01 4.278354557E-02 6.970270016E+04 1.016816819E+02 4.390182921E-01
 -7.208314278E-01 3.903676076E-02 6.970410980E+04 1.016662326E+02 4.822847140E-01
 -6.593983787E-01 3.558666885E-02 6.970576560E+04 1.016480664E+02 5.292256756E-01
 -6.028039971E-01 3.241095014E-02 6.970770914E+04 1.016267186E+02 5.801531965E-01
 -5.506849240E-01 2.948889655E-02 6.970998874E+04 1.016016519E+02 6.353953804E-01
 -5.027042273E-01 2.680129692E-02 6.971266080E+04 1.015722481E+02 6.953054661E-01
 -4.585495242E-01 2.433033052E-02 6.971579078E+04 1.015377842E+02 7.602768578E-01
 -4.179312331E-01 2.205946823E-02 6.971945403E+04 1.014974207E+02 8.307166691E-01
 -3.805809496E-01 1.997338094E-02 6.972373756E+04 1.014501853E+02 9.070497661E-01
 -3.462499346E-01 1.805785466E-02 6.972874224E+04 1.013949519E+02 9.897408515E-01
 -3.147077091E-01 1.629971182E-02 6.973458429E+04 1.013304211E+02 1.079284451E+00
 -2.857407473E-01 1.468673849E-02 6.974139736E+04 1.012550944E+02 1.176205173E+00
 -2.591512619E-01 1.320761689E-02 6.974933510E+04 1.011672438E+02 1.281062613E+00