TITLE     = "fluent22.1.0  build-id: 10213"
VARIABLES = "X"
"Y"
"Pressure"
"X Velocity"
"Y Velocity"
DATASETAUXDATA Common.DensityVar="23"
DATASETAUXDATA Common.PressureVar="3"
DATASETAUXDATA Common.TemperatureVar="12"
DATASETAUXDATA Common.TurbulentDynamicViscosityVar="17"
DATASETAUXDATA Common.UVar="5"
DATASETAUXDATA Common.VectorVarsAreVelocity="TRUE"
DATASETAUXDATA Common.ViscosityVar="25"
DATASETAUXDATA Common.VVar="7"
ZONE T="fluid"
 STRANDID=1, SOLUTIONTIME=0.6275
 Nodes=10240, Elements=10080, ZONETYPE=FEQuadrilateral
 DATAPACKING=POINT
 DT=(DOUBLE DOUBLE DOUBLE DOUBLE DOUBLE )
 -4.856290020E+00 -7.872354469E-01 6.969773041E+04 1.017508806E+02 6.192370352E-03
 -4.486954703E+00 -7.103411008E-01 6.969782095E+04 1.017495412E+02 1.030784276E-02
 -4.884823481E+00 -5.813004056E-01 6.969723565E+04 1.017527853E+02 6.782172004E-03
 -4.512968404E+00 -5.224613399E-01 6.969730666E+04 1.017517356E+02 1.092952206E-02
 -4.144862851E+00 -6.391139806E-01 6.969798301E+04 1.017469515E+02 1.982955823E-02
 -4.168542682E+00 -4.679577654E-01 6.969743477E+04 1.017497043E+02 2.050765815E-02
 -3.828058057E+00 -5.731472622E-01 6.969811433E+04 1.017444631E+02 3.119622829E-02
 -3.849576559E+00 -4.174784581E-01 6.969753927E+04 1.017477471E+02 3.192503821E-02
 -3.534721657E+00 -5.120627060E-01 6.969825896E+04 1.017418838E+02 4.351854598E-02
 -3.554238958E+00 -3.707340861E-01 6.969765608E+04 1.017457017E+02 4.431190993E-02
 -3.260646565E+00 -4.698325805E-01 6.969846624E+04 1.017388908E+02 5.660796445E-02
 -3.278603578E+00 -3.398611183E-01 6.969782905E+04 1.017432743E+02 5.750070016E-02
 -3.006484964E+00 -4.334755786E-01 6.969872656E+04 1.017354533E+02 7.048244656E-02
 -3.023046894E+00 -3.136179534E-01 6.969805031E+04 1.017404325E+02 7.150749948E-02
 -2.771279523E+00 -3.998259604E-01 6.969901778E+04 1.017317317E+02 8.523392279E-02
 -2.786550431E+00 -2.893278497E-01 6.969829958E+04 1.017373253E+02 8.640971779E-02
 -2.553658188E+00 -3.686878429E-01 6.969934561E+04 1.017276551E+02 1.009412219E-01
 -2.567734603E+00 -2.668495220E-01 6.969858204E+04 1.017338876E+02 1.022859798E-01
 -2.352346079E+00 -3.398792132E-01 6.969971734E+04 1.017231460E+02 1.176931435E-01
 -2.365317529E+00 -2.460516879E-01 6.969890470E+04 1.017300454E+02 1.192285178E-01
 -2.166158718E+00 -3.132309609E-01 6.970013707E+04 1.017181509E+02 1.355895198E-01
 -2.178108229E+00 -2.268123711E-01 6.969927137E+04 1.017257494E+02 1.373401055E-01
 -1.993995727E+00 -2.885859790E-01 6.970061077E+04 1.017125987E+02 1.547381525E-01
 -2.005000283E+00 -2.090182518E-01 6.969968761E+04 1.017209337E+02 1.567317443E-01
 -1.834834959E+00 -2.657983264E-01 6.970114581E+04 1.017064062E+02 1.752554042E-01
 -1.844965935E+00 -1.925640637E-01 6.970016045E+04 1.017155193E+02 1.775234980E-01
 -1.687727032E+00 -2.447324484E-01 6.970175023E+04 1.016994821E+02 1.972663842E-01
 -1.697050588E+00 -1.773520312E-01 6.970069761E+04 1.017094194E+02 1.998448677E-01
 -1.551790235E+00 -2.252624506E-01 6.970243315E+04 1.016917228E+02 2.209053062E-01
 -1.560367692E+00 -1.632913464E-01 6.970130788E+04 1.017025348E+02 2.238350916E-01
 -1.426205798E+00 -2.072714236E-01 6.970320511E+04 1.016830097E+02 2.463155792E-01
 -1.434093983E+00 -1.502976821E-01 6.970200147E+04 1.016947515E+02 2.496434891E-01
 -1.310213475E+00 -1.906508145E-01 6.970407821E+04 1.016732073E+02 2.736500281E-01
 -1.317465040E+00 -1.382927386E-01 6.970279012E+04 1.016859382E+02 2.774297788E-01
 -1.203107439E+00 -1.752998414E-01 6.970506632E+04 1.016621603E+02 3.030712458E-01
 -1.209771162E+00 -1.272038219E-01 6.970368740E+04 1.016759439E+02 3.073643869E-01
 -1.104232462E+00 -1.611249490E-01 6.970618545E+04 1.016496904E+02 3.347517298E-01
 -1.110353526E+00 -1.169634510E-01 6.970470895E+04 1.016645945E+02 3.396289631E-01
 -1.012980356E+00 -1.480393013E-01 6.970745403E+04 1.016355929E+02 3.688739263E-01
 -1.018600603E+00 -1.075089928E-01 6.970587290E+04 1.016516888E+02 3.744168540E-01
 -9.287866619E-01 -1.359623107E-01 6.970889327E+04 1.016196306E+02 4.056310282E-01
 -9.339448359E-01 -9.878232185E-02 6.970720015E+04 1.016369941E+02 4.119326739E-01
 -8.511275669E-01 -1.248191979E-01 6.971052770E+04 1.016015304E+02 4.452262606E-01
 -8.558595379E-01 -9.072950419E-02 6.970871496E+04 1.016202425E+02 4.523935799E-01
 -7.795170391E-01 -1.145405842E-01 6.971238550E+04 1.015809780E+02 4.878719831E-01
 -7.838560085E-01 -8.330050255E-02 6.971044526E+04 1.016011203E+02 4.960295411E-01
 -7.135041572E-01 -1.050621107E-01 6.971449940E+04 1.015576127E+02 5.337907942E-01
 -7.174808515E-01 -7.644890238E-02 6.971242336E+04 1.015792691E+02 5.430808111E-01
 -6.526706280E-01 -9.632408459E-02 6.971690731E+04 1.015310157E+02 5.832197221E-01
 -6.563134777E-01 -7.013165666E-02 6.971468682E+04 1.015542737E+02 5.938002209E-01
 -5.966284764E-01 -8.827114952E-02 6.971965266E+04 1.015007015E+02 6.364049489E-01
 -5.999637823E-01 -6.430884828E-02 6.971727902E+04 1.015256525E+02 6.484574946E-01
 -5.450178954E-01 -8.085197897E-02 6.972278554E+04 1.014661135E+02 6.935974176E-01
 -5.480699835E-01 -5.894346885E-02 6.972025000E+04 1.014928501E+02 7.073368973E-01
 -4.975052474E-01 -7.401899064E-02 6.972636386E+04 1.014266071E+02 7.550585630E-01
 -5.002966125E-01 -5.400121267E-02 6.972365746E+04 1.014552228E+02 7.707293918E-01
 -4.537812039E-01 -6.772808057E-02 6.973045448E+04 1.013814380E+02 8.210603047E-01
 -4.563326426E-01 -4.945028478E-02 6.972756798E+04 1.014120287E+02 8.389365384E-01
 -4.135590150E-01 -6.193837547E-02 6.973513439E+04 1.013297482E+02 8.918823373E-01
 -4.158897503E-01 -4.526122217E-02 6.973205845E+04 1.013624099E+02 9.122769104E-01
 -3.765729013E-01 -5.661200204E-02 6.974049220E+04 1.012705485E+02 9.678110458E-01
 -3.787006971E-01 -4.140672712E-02 6.973721749E+04 1.013053767E+02 9.910813983E-01
 -3.425765566E-01 -5.171387210E-02 6.974662994E+04 1.012026981E+02 1.049139646E+00
 -3.445178245E-01 -3.786151181E-02 6.974314712E+04 1.012397879E+02 1.075691330E+00
 -3.113417566E-01 -4.721148229E-02 6.975366499E+04 1.011248823E+02 1.136167446E+00
 -3.131116556E-01 -3.460215350E-02 6.974996466E+04 1.011643280E+02 1.166459910E+00
 -2.826570648E-01 -4.307472760E-02 6.976173222E+04 1.010355872E+02 1.229199028E+00
 -2.842695929E-01 -3.160695953E-02 6.975780501E+04 1.010774814E+02 1.263752448E+00
 -2.563266294E-01 -3.927572749E-02 6.977098650E+04 1.009330693E+02 1.328543706E+00
 -2.577947094E-01 -2.885584133E-02 6.976682307E+04 1.009775028E+02 1.367946024E+00
 -2.321690645E-01 -3.578866398E-02 6.978160557E+04 1.008153220E+02 1.434514987E+00
 -2.335046233E-01 -2.633019713E-02 6.977719657E+04 1.008623833E+02 1.479429655E+00
 -2.100164104E-01 -3.258963088E-02 6.979379325E+04 1.006800349E+02 1.547430053E+00
 -2.112304524E-01 -2.401280259E-02 6.978912937E+04 1.007298100E+02 1.598604730E+00
 -1.897131669E-01 -2.965649346E-02 6.980778323E+04 1.005245486E+02 1.667609227E+00
 -1.908158425E-01 -2.188770898E-02 6.980285513E+04 1.005771206E+02 1.725885496E+00
 -1.711153944E-01 -2.696875784E-02 6.982384338E+04 1.003457990E+02 1.795375693E+00
 -1.721160636E-01 -1.994014847E-02 6.981864162E+04 1.004012479E+02 1.861700013E+00
 -1.540898794E-01 -2.450744976E-02 6.984228071E+04 1.001402539E+02 1.931053569E+00
 -1.549971704E-01 -1.815644611E-02 6.983679576E+04 1.001986568E+02 2.006489770E+00
 -1.385133581E-01 -2.225500194E-02 6.986344734E+04 9.990383483E+01 2.074970256E+00
 -1.393352220E-01 -1.652393817E-02 6.985766947E+04 9.996526447E+01 2.160714407E+00
 -1.242717956E-01 -2.019514965E-02 6.988774711E+04 9.963182692E+01 2.227443614E+00
 -1.250155570E-01 -1.503089648E-02 6.988166650E+04 9.969635275E+01 2.324839952E+00
 -1.112597155E-01 -1.831283408E-02 6.991564357E+04 9.931877163E+01 2.388787303E+00
 -1.119321199E-01 -1.366645847E-02 6.990925007E+04 9.938645838E+01 2.499348633E+00
 -9.937957802E-02 -1.659411292E-02 6.994767050E+04 9.895831357E+01 2.559306889E+00
 -9.998683481E-02 -1.242056257E-02 6.994095370E+04 9.902921604E+01 2.684740000E+00
 -8.854120150E-02 -1.502607783E-02 6.998444545E+04 9.854302128E+01 2.739273380E+00
 -8.908902492E-02 -1.128388866E-02 6.997739482E+04 9.861718290E+01 2.881508535E+00
 -7.866122553E-02 -1.359677827E-02 7.002668373E+04 9.806415449E+01 2.928904099E+00
 -7.915487197E-02 -1.024780331E-02 7.001928802E+04 9.814161482E+01 3.090135714E+00
 -6.966261225E-02 -1.229515130E-02 7.007521685E+04 9.751142265E+01 3.128293977E+00
 -7.010691508E-02 -9.304309391E-03 7.006746481E+04 9.759220883E+01 3.311059175E+00
 -6.147418325E-02 -1.111095698E-02 7.013101288E+04 9.687255669E+01 3.337377113E+00
 -6.187358507E-02 -8.445999859E-03 7.012289693E+04 9.695661863E+01 3.544637849E+00
 -5.403018964E-02 -1.003471896E-02 7.019521638E+04 9.613294281E+01 3.555918748E+00
 -5.438877218E-02 -7.666015302E-03 7.018673299E+04 9.622015729E+01 3.791105301E+00
 -4.726991285E-02 -9.057669227E-03 7.026916102E+04 9.527455058E+01 3.783403837E+00
 -4.759142465E-02 -6.958004757E-03 7.026030737E+04 9.536470064E+01 4.050474105E+00
 -4.113729408E-02 -8.171697759E-03 7.035440423E+04 9.427724396E+01 4.020428145E+00
 -4.142517614E-02 -6.316089844E-03 7.034517018E+04 9.437024839E+01 4.323885373E+00
 -3.558880766E-02 -7.320834848E-03 7.045251876E+04 9.311617299E+01 4.282898364E+00
 -3.584487074E-02 -5.690444726E-03 7.044283244E+04 9.321255960E+01 4.626953261E+00
 -3.060386698E-02 -6.337954600E-03 7.056544070E+04 9.176152110E+01 4.592441587E+00
 -3.082486400E-02 -4.927663149E-03 7.055518217E+04 9.186229829E+01 4.980931433E+00
 -2.609885438E-02 -5.450078975E-03 7.069621378E+04 9.016866994E+01 4.946226625E+00
 -2.628816003E-02 -4.238691565E-03 7.068527875E+04 9.027476185E+01 5.384561482E+00
 -2.203350120E-02 -4.649216785E-03 7.084878917E+04 8.827612942E+01 5.340621242E+00
 -2.219420714E-02 -3.617318110E-03 7.083707103E+04 8.838799066E+01 5.836008122E+00
 -1.837068183E-02 -3.927995147E-03 7.102768754E+04 8.600444530E+01 5.784051254E+00
 -1.850561878E-02 -3.057810250E-03 7.101509016E+04 8.612281518E+01 6.345852946E+00
 -1.507617920E-02 -3.279615123E-03 7.123914961E+04 8.324636676E+01 6.295434758E+00
 -1.518793740E-02 -2.554880791E-03 7.122547731E+04 8.337172567E+01 6.934314822E+00
 -1.211846715E-02 -2.697810305E-03 7.149079880E+04 7.983290320E+01 6.883221622E+00
 -1.220941532E-02 -2.103656068E-03 7.147593402E+04 7.996679989E+01 7.615602866E+00
 -9.468508736E-03 -2.176808150E-03 7.179477339E+04 7.552763465E+01 7.606915507E+00
 -9.540811498E-03 -1.699646199E-03 7.177826013E+04 7.566992324E+01 8.447802538E+00
 -7.099569010E-03 -1.711293828E-03 7.216287017E+04 6.989405117E+01 8.438369308E+00
 -7.155203125E-03 -1.338717211E-03 7.214481192E+04 7.004776821E+01 9.426119742E+00
 -4.987041522E-03 -1.296376407E-03 7.261630871E+04 6.231841983E+01 9.645703936E+00
 -5.027810799E-03 -1.017064912E-03 7.259539341E+04 6.247375279E+01 1.078945017E+01
 -3.108287384E-03 -9.275569647E-04 7.313674002E+04 5.169941082E+01 1.098130248E+01
 -3.135836507E-03 -7.311901289E-04 7.311473296E+04 5.185191006E+01 1.238404966E+01
 -1.442486064E-03 -6.006980887E-04 7.365133913E+04 3.778861522E+01 1.529683230E+01
 -1.458313352E-03 -4.778747840E-04 7.362167502E+04 3.802051227E+01 1.683897961E+01
 2.950318352E-05 -3.119902977E-04 7.389800569E+04 3.014742750E+01 1.906532107E+01
 2.403397564E-05 -2.541545121E-04 7.385939158E+04 3.045500264E+01 2.055309666E+01
 -4.904860300E+00 -3.743658139E-01 6.969673315E+04 1.017547412E+02 7.287849007E-03
 -4.531136818E+00 -3.336587813E-01 6.969678585E+04 1.017539739E+02 1.146264103E-02
 -4.184980535E+00 -2.959498242E-01 6.969688174E+04 1.017524946E+02 2.108811887E-02
 -3.864411792E+00 -2.610237398E-01 6.969696091E+04 1.017510683E+02 3.254447287E-02
 -3.567590312E+00 -2.286804730E-01 6.969705149E+04 1.017495540E+02 4.497786415E-02
 -3.290873346E+00 -2.092217754E-01 6.969719052E+04 1.017476939E+02 5.824608970E-02
 -3.034364855E+00 -1.931446037E-01 6.969737211E+04 1.017454543E+02 7.236818196E-02
 -2.796987585E+00 -1.782622783E-01 6.969757893E+04 1.017429642E+02 8.740465023E-02
 -2.577356809E+00 -1.644883934E-01 6.969781554E+04 1.017401662E+02 1.034327082E-01
 -2.374185871E+00 -1.517426597E-01 6.969808844E+04 1.017369931E+02 1.205483496E-01
 -2.186279353E+00 -1.399504776E-01 6.969840125E+04 1.017333995E+02 1.388568067E-01
 -2.012526716E+00 -1.290425411E-01 6.969875915E+04 1.017293249E+02 1.584716485E-01
 -1.851896372E+00 -1.189544680E-01 6.969916878E+04 1.017246957E+02 1.795166586E-01
 -1.703430169E+00 -1.096264570E-01 6.969963752E+04 1.017194296E+02 2.021258316E-01
 -1.566238256E+00 -1.010029674E-01 6.970017377E+04 1.017134324E+02 2.264435646E-01
 -1.439494299E+00 -9.303242232E-02 6.970078739E+04 1.017065946E+02 2.526251648E-01
 -1.322431032E+00 -8.566693108E-02 6.970148974E+04 1.016987897E+02 2.808372940E-01
 -1.214336111E+00 -7.886203223E-02 6.970229400E+04 1.016898712E+02 3.112584670E-01
 -1.114548256E+00 -7.257645361E-02 6.970321547E+04 1.016796695E+02 3.440795840E-01
 -1.022453663E+00 -6.677188930E-02 6.970427186E+04 1.016679878E+02 3.795043646E-01
 -9.374826599E-01 -6.141279209E-02 6.970548374E+04 1.016545979E+02 4.177499272E-01
 -8.591065981E-01 -5.646618025E-02 6.970687493E+04 1.016392352E+02 4.590476224E-01
 -7.868349571E-01 -5.190145772E-02 6.970847309E+04 1.016215936E+02 5.036426163E-01
 -7.202126520E-01 -4.769024665E-02 6.971031022E+04 1.016013160E+02 5.517961379E-01
 -6.588175273E-01 -4.380623159E-02 6.971242341E+04 1.015779898E+02 6.037823458E-01
 -6.022580251E-01 -4.022501421E-02 6.971485554E+04 1.015511361E+02 6.598896353E-01
 -5.501710165E-01 -3.692397811E-02 6.971765644E+04 1.015202046E+02 7.204265460E-01
 -5.022197831E-01 -3.388216269E-02 6.972088379E+04 1.014845564E+02 7.857228234E-01
 -4.580921398E-01 -3.108014561E-02 6.972460391E+04 1.014434489E+02 8.561179604E-01
 -4.174986893E-01 -2.849993320E-02 6.972889319E+04 1.013960290E+02 9.319628871E-01
 -3.801711977E-01 -2.612485810E-02 6.973384002E+04 1.013413085E+02 1.013632948E+00
 -3.458610841E-01 -2.393948377E-02 6.973954629E+04 1.012781468E+02 1.101521187E+00
 -3.143380166E-01 -2.192951537E-02 6.974612913E+04 1.012052296E+02 1.196036466E+00
 -2.853886060E-01 -2.008171640E-02 6.975372321E+04 1.011210422E+02 1.297606427E+00
 -2.588151912E-01 -1.838383103E-02 6.976248321E+04 1.010238402E+02 1.406678458E+00
 -2.344347111E-01 -1.682451148E-02 6.977258664E+04 1.009116149E+02 1.523720194E+00
 -2.120776540E-01 -1.539325030E-02 6.978423704E+04 1.007820540E+02 1.649220906E+00
 -1.915870830E-01 -1.408031725E-02 6.979766774E+04 1.006324959E+02 1.783693362E+00
 -1.728177287E-01 -1.287670062E-02 6.981314604E+04 1.004598744E+02 1.927676041E+00
 -1.556351463E-01 -1.177405261E-02 6.983097829E+04 1.002606561E+02 2.081735248E+00
 -1.399149331E-01 -1.076463877E-02 6.985151571E+04 1.000307596E+02 2.246470489E+00
 -1.255419999E-01 -9.841291240E-03 6.987516122E+04 9.976546920E+01 2.422509650E+00
 -1.124098959E-01 -8.997365585E-03 6.990237706E+04 9.945932432E+01 2.610520301E+00
 -1.004201797E-01 -8.226701122E-03 6.993369546E+04 9.910596207E+01 2.811212676E+00
 -8.948183624E-02 -7.523584525E-03 6.996973240E+04 9.869794318E+01 3.025328807E+00
 -7.951073495E-02 -6.882716509E-03 7.001120096E+04 9.822652426E+01 3.253642576E+00
 -7.042912626E-02 -6.299181408E-03 7.005893115E+04 9.768140043E+01 3.496944324E+00
 -6.216517436E-02 -5.768419443E-03 7.011389296E+04 9.705021646E+01 3.756033869E+00
 -5.465252327E-02 -5.286201401E-03 7.017723374E+04 9.631827098E+01 4.031672968E+00
 -4.782989390E-02 -4.848605458E-03 7.025028662E+04 9.546737732E+01 4.324550669E+00
 -4.164071014E-02 -4.451996051E-03 7.033459971E+04 9.447758322E+01 4.636339308E+00
 -3.603827302E-02 -4.052710761E-03 7.043165447E+04 9.332495368E+01 4.981741141E+00
 -3.099196940E-02 -3.511051898E-03 7.054328109E+04 9.198072887E+01 5.381430335E+00
 -2.643149914E-02 -3.021911057E-03 7.067253102E+04 9.040028961E+01 5.836398804E+00
 -2.231609827E-02 -2.580863592E-03 7.082335686E+04 8.852124464E+01 6.346936640E+00
 -1.860818461E-02 -2.183824645E-03 7.100027962E+04 8.626482169E+01 6.925699609E+00
 -1.527312030E-02 -1.827025540E-03 7.120934653E+04 8.352341799E+01 7.594441554E+00
 -1.227899155E-02 -1.506991626E-03 7.145829687E+04 8.013018975E+01 8.373407126E+00
 -9.596404336E-03 -1.220521486E-03 7.175863813E+04 7.584531944E+01 9.321072130E+00
 -7.198294965E-03 -9.646673788E-04 7.212310504E+04 7.023891117E+01 1.045488375E+01
 -5.059754376E-03 -7.367168205E-04 7.257025584E+04 6.267290615E+01 1.200161139E+01
 -3.157865244E-03 -5.341749828E-04 7.308713794E+04 5.206131606E+01 1.385764371E+01
 -1.471550930E-03 -3.547473751E-04 7.358554162E+04 3.829757420E+01 1.847648045E+01
 1.856476775E-05 -1.963187265E-04 7.381461149E+04 3.078695876E+01 2.218169367E+01
 -4.916318661E+00 -1.667794339E-01 6.969622892E+04 1.017567272E+02 7.637991116E-03
 -4.541384397E+00 -1.442545328E-01 6.969626326E+04 1.017562451E+02 1.183494540E-02
 -4.194106667E+00 -1.233865769E-01 6.969632628E+04 1.017553242E+02 2.150788111E-02
 -3.872499393E+00 -1.040566571E-01 6.969637931E+04 1.017544307E+02 3.301936088E-02
 -3.574716333E+00 -8.615424188E-02 6.969644343E+04 1.017534419E+02 4.551934699E-02
 -3.297401144E+00 -7.814733386E-02 6.969654823E+04 1.017521453E+02 5.887736516E-02
 -3.040388386E+00 -7.227016780E-02 6.969668967E+04 1.017505075E+02 7.311343578E-02
 -2.802544470E+00 -6.682709379E-02 6.969685356E+04 1.017486355E+02 8.827801973E-02
 -2.582481945E+00 -6.178676959E-02 6.969704382E+04 1.017464801E+02 1.044487111E-01
 -2.378911622E+00 -5.712006959E-02 6.969726628E+04 1.017439819E+02 1.217253520E-01
 -2.190635735E+00 -5.279993020E-02 6.969752444E+04 1.017410991E+02 1.402163988E-01
 -2.016541558E+00 -4.880120606E-02 6.969782308E+04 1.017377762E+02 1.600386875E-01
 -1.855595475E+00 -4.510053646E-02 6.969816844E+04 1.017339448E+02 1.813199827E-01
 -1.706837449E+00 -4.167622119E-02 6.969856751E+04 1.017295275E+02 2.041988758E-01
 -1.569375880E+00 -3.850810502E-02 6.969902832E+04 1.017244349E+02 2.288249441E-01
 -1.442382809E+00 -3.557747041E-02 6.969956031E+04 1.017185623E+02 2.553594693E-01
 -1.325089461E+00 -3.286693767E-02 6.970017445E+04 1.017117882E+02 2.839760449E-01
 -1.216782091E+00 -3.036037218E-02 6.970088352E+04 1.017039710E+02 3.148611651E-01
 -1.116798119E+00 -2.804279804E-02 6.970170238E+04 1.016949459E+02 3.482148947E-01
 -1.024522533E+00 -2.590031782E-02 6.970264832E+04 1.016845212E+02 3.842516282E-01
 -9.393845430E-01 -2.392003785E-02 6.970374148E+04 1.016724737E+02 4.232006836E-01
 -8.608544597E-01 -2.208999864E-02 6.970500527E+04 1.016585438E+02 4.653070668E-01
 -7.884407986E-01 -2.039911017E-02 6.970646688E+04 1.016424294E+02 5.108323108E-01
 -7.216875802E-01 -1.883709155E-02 6.970815792E+04 1.016237800E+02 5.600545758E-01
 -6.601718189E-01 -1.739441474E-02 6.971011514E+04 1.016021884E+02 6.132715683E-01
 -6.035011874E-01 -1.606225211E-02 6.971238096E+04 1.015771786E+02 6.707977315E-01
 -5.513118428E-01 -1.483242737E-02 6.971500454E+04 1.015481997E+02 7.329630848E-01
 -5.032664047E-01 -1.369736973E-02 6.971804317E+04 1.015146222E+02 8.001204481E-01
 -4.590520746E-01 -1.265007104E-02 6.972156319E+04 1.014757104E+02 8.726536836E-01
 -4.183788861E-01 -1.168404550E-02 6.972564066E+04 1.014306095E+02 9.509593350E-01
 -3.809780779E-01 -1.079329199E-02 6.973036329E+04 1.013783376E+02 1.035446732E+00
 -3.466005805E-01 -9.972258566E-03 6.973583260E+04 1.013177571E+02 1.126557973E+00
 -3.150156089E-01 -9.215809190E-03 6.974216549E+04 1.012475557E+02 1.224759286E+00
 -2.860093544E-01 -8.519192373E-03 6.974949624E+04 1.011662218E+02 1.330539509E+00
 -2.593837670E-01 -7.878011721E-03 6.975797913E+04 1.010720138E+02 1.444414384E+00
 -2.349554255E-01 -7.288198257E-03 6.976779121E+04 1.009629258E+02 1.566928436E+00
 -2.125544846E-01 -6.745984467E-03 6.977913555E+04 1.008366490E+02 1.698656661E+00
 -1.920236986E-01 -6.247880005E-03 6.979224485E+04 1.006905252E+02 1.840207547E+00
 -1.732175119E-01 -5.790649046E-03 6.980738569E+04 1.005214931E+02 1.992226581E+00
 -1.560012152E-01 -5.371289259E-03 6.982486350E+04 1.003260246E+02 2.155400571E+00
 -1.402501607E-01 -4.987012402E-03 6.984502841E+04 1.001000463E+02 2.330464269E+00
 -1.258490327E-01 -4.635226503E-03 6.986828195E+04 9.983884870E+01 2.518200024E+00
 -1.126911704E-01 -4.313519622E-03 6.989508483E+04 9.953697990E+01 2.719451997E+00
 -1.006779388E-01 -4.019645168E-03 6.992596735E+04 9.918809235E+01 2.935131043E+00
 -8.971814350E-02 -3.751508707E-03 6.996154300E+04 9.878476273E+01 3.166213096E+00
 -7.972748831E-02 -3.507156205E-03 7.000252199E+04 9.831826348E+01 3.413752863E+00
 -7.062807065E-02 -3.284763621E-03 7.004973115E+04 9.777830789E+01 3.678878420E+00
 -6.234791340E-02 -3.082627735E-03 7.010413656E+04 9.715255972E+01 3.962795665E+00
 -5.482053008E-02 -2.899158071E-03 7.016688158E+04 9.642634235E+01 4.266749038E+00
 -4.798452122E-02 -2.732869737E-03 7.023929473E+04 9.558146159E+01 4.592055221E+00
 -4.178319959E-02 -2.582377144E-03 7.032292012E+04 9.459800984E+01 4.940914642E+00
 -3.616841181E-02 -2.410197290E-03 7.041921831E+04 9.345227386E+01 5.327971669E+00
 -3.110466489E-02 -2.090326365E-03 7.052997374E+04 9.211587343E+01 5.773165383E+00
 -2.652842962E-02 -1.801618656E-03 7.065822903E+04 9.054427169E+01 6.278685145E+00
 -2.239880130E-02 -1.541441762E-03 7.080792649E+04 8.867495373E+01 6.847075702E+00
 -1.867806801E-02 -1.307363159E-03 7.098355592E+04 8.642966136E+01 7.493114438E+00
 -1.533147233E-02 -1.097137003E-03 7.119107814E+04 8.370088902E+01 8.240142698E+00
 -1.232699033E-02 -9.086916612E-04 7.143823339E+04 8.032297734E+01 9.113650331E+00
 -9.635126560E-03 -7.401178959E-04 7.173628235E+04 7.605482134E+01 1.017367066E+01
 -7.228723923E-03 -5.896576476E-04 7.209820151E+04 7.046997373E+01 1.145422249E+01
 -5.082787384E-03 -4.556933418E-04 7.254149240E+04 6.292087270E+01 1.318229832E+01
 -3.174320510E-03 -3.367374668E-04 7.305495487E+04 5.233277945E+01 1.528761858E+01
 -1.482173895E-03 -2.314218559E-04 7.354497456E+04 3.863627643E+01 2.008380400E+01
 1.309555987E-05 -1.384829409E-04 7.376641483E+04 3.117273582E+01 2.381139664E+01
 -4.919121367E+00 4.110405248E-02 6.969572210E+04 1.017587339E+02 7.880473887E-03
 -4.543639861E+00 4.542390216E-02 6.969573803E+04 1.017585364E+02 1.210213964E-02
 -4.195855275E+00 4.942965821E-02 6.969576789E+04 1.017581743E+02 2.182814471E-02
 -3.873778632E+00 5.314379387E-02 6.969579459E+04 1.017578143E+02 3.339664295E-02
 -3.575560988E+00 5.658720755E-02 6.969583233E+04 1.017573520E+02 4.595602988E-02
 -3.298135337E+00 5.312479212E-02 6.969590268E+04 1.017566247E+02 5.938710135E-02
 -3.041069879E+00 4.878644510E-02 6.969600334E+04 1.017555985E+02 7.371593538E-02
 -2.803177203E+00 4.477591943E-02 6.969612366E+04 1.017543543E+02 8.898861085E-02
 -2.583069572E+00 4.106940970E-02 6.969626693E+04 1.017528512E+02 1.052832315E-01
 -2.379457534E+00 3.764479954E-02 6.969643823E+04 1.017510386E+02 1.227025172E-01
 -2.191143072E+00 3.448154423E-02 6.969664087E+04 1.017488780E+02 1.413576132E-01
 -2.017013233E+00 3.156056100E-02 6.969687929E+04 1.017463191E+02 1.613682394E-01
 -1.856034187E+00 2.886412677E-02 6.969715927E+04 1.017432990E+02 1.828658278E-01
 -1.707245702E+00 2.637578260E-02 6.969748740E+04 1.017397455E+02 2.059934088E-01
 -1.569755992E+00 2.408024461E-02 6.969787130E+04 1.017355742E+02 2.309057233E-01
 -1.442736928E+00 2.196332088E-02 6.969831997E+04 1.017306859E+02 2.577700608E-01
 -1.325419578E+00 2.001183401E-02 6.969884396E+04 1.017249642E+02 2.867669927E-01
 -1.217090049E+00 1.821354882E-02 6.969945558E+04 1.017182728E+02 3.180910795E-01
 -1.117085626E+00 1.655710510E-02 6.970016925E+04 1.017104526E+02 3.519516982E-01
 -1.024791171E+00 1.503195485E-02 6.970100177E+04 1.017013171E+02 3.885739061E-01
 -9.396357755E-01 1.362830397E-02 6.970197281E+04 1.016906487E+02 4.281993191E-01
 -8.610896426E-01 1.233705789E-02 6.970310528E+04 1.016781935E+02 4.710871665E-01
 -7.886611866E-01 1.114977106E-02 6.970442588E+04 1.016636550E+02 5.175149746E-01
 -7.218943345E-01 1.005860006E-02 6.970596573E+04 1.016466879E+02 5.677798852E-01
 -6.603660142E-01 9.056260038E-03 6.970776103E+04 1.016268900E+02 6.221994176E-01
 -6.036838179E-01 8.135984346E-03 6.970985383E+04 1.016037952E+02 6.811130237E-01
 -5.514838281E-01 7.291487179E-03 6.971229281E+04 1.015768553E+02 7.448828358E-01
 -5.034285954E-01 6.516929060E-03 6.971513446E+04 1.015454392E+02 8.138882275E-01
 -4.592052571E-01 5.806884997E-03 6.971844450E+04 1.015088220E+02 8.885355198E-01
 -4.185237874E-01 5.156315167E-03 6.972229900E+04 1.014661565E+02 9.692732034E-01
 -3.811153699E-01 4.560537988E-03 6.972678529E+04 1.014164621E+02 1.056564057E+00
 -3.467308840E-01 4.015205414E-03 6.973200401E+04 1.013586079E+02 1.150887829E+00
 -3.151394973E-01 3.516280328E-03 6.973807153E+04 1.012912855E+02 1.252766755E+00
 -2.861273570E-01 3.060015860E-03 6.974512175E+04 1.012129865E+02 1.362754649E+00
 -2.594963726E-01 2.642936493E-03 6.975330835E+04 1.011219739E+02 1.481436432E+00
 -2.350630847E-01 2.261820773E-03 6.976280775E+04 1.010162470E+02 1.609434022E+00
 -2.126576131E-01 1.913685470E-03 6.977382230E+04 1.008935019E+02 1.747409384E+00
 -1.921226795E-01 1.595771014E-03 6.978658386E+04 1.007510864E+02 1.896068011E+00
 -1.733126981E-01 1.305528020E-03 6.980135802E+04 1.005859467E+02 2.056163995E+00
 -1.560929315E-01 1.040604745E-03 6.981844897E+04 1.003945627E+02 2.228506013E+00
 -1.403387059E-01 7.988353024E-04 6.983820534E+04 1.001728733E+02 2.413967538E+00
 -1.259346818E-01 5.782284835E-04 6.986102679E+04 9.991618029E+01 2.613486631E+00
 -1.127741760E-01 3.769570602E-04 6.988737185E+04 9.961904613E+01 2.828084500E+00
 -1.007585328E-01 1.933474466E-04 6.991776821E+04 9.927514573E+01 3.058878150E+00
 -8.979653902E-02 2.586964270E-05 6.995282582E+04 9.887708158E+01 3.307083645E+00
 -7.980388083E-02 -1.268725949E-04 6.999325072E+04 9.841615490E+01 3.574041097E+00
 -7.070263952E-02 -2.661513985E-04 7.003986492E+04 9.788211458E+01 3.861217196E+00
 -6.242082308E-02 -3.931242342E-04 7.009362824E+04 9.726266657E+01 4.170232697E+00
 -5.489193139E-02 -5.088430985E-04 7.015567696E+04 9.654318953E+01 4.502836326E+00
 -4.805455239E-02 -6.142634189E-04 7.022733076E+04 9.570554287E+01 4.860999976E+00
 -4.185198735E-02 -7.102526565E-04 7.031012851E+04 9.472980039E+01 5.247519102E+00
 -3.623471852E-02 -7.655195312E-04 7.040552645E+04 9.359234645E+01 5.676605168E+00
 -3.116246146E-02 -6.677358214E-04 7.051528041E+04 9.226503749E+01 6.167477621E+00
 -2.657853442E-02 -5.797328944E-04 7.064240494E+04 9.070356168E+01 6.723792358E+00
 -2.244196408E-02 -5.006726816E-04 7.079080868E+04 8.884558645E+01 7.350321692E+00
 -1.871497529E-02 -4.297769224E-04 7.096494233E+04 8.661332970E+01 8.063844386E+00
 -1.536275238E-02 -3.663244148E-04 7.117068581E+04 8.389942376E+01 8.889658189E+00
 -1.235321776E-02 -3.096482338E-04 7.141574690E+04 8.053952089E+01 9.857597098E+00
 -9.656826574E-03 -2.591329081E-04 7.171114577E+04 7.629183668E+01 1.103100850E+01
 -7.246376210E-03 -2.142115462E-04 7.206999630E+04 7.073422327E+01 1.245655872E+01
 -5.096829753E-03 -1.743628755E-04 7.250883945E+04 6.321086333E+01 1.436686436E+01
 -3.185152223E-03 -1.391080164E-04 7.301810307E+04 5.266049182E+01 1.670869975E+01
 -1.490158753E-03 -1.080063287E-04 7.349997756E+04 3.903163948E+01 2.167562737E+01
 7.626351982E-06 -8.064715534E-05 7.371455853E+04 3.160681868E+01 2.543601677E+01
 -4.913313371E+00 2.489252871E-01 6.969521281E+04 1.017607545E+02 7.981589508E-03
 -4.537944712E+00 2.350447350E-01 6.969521021E+04 1.017608444E+02 1.222077366E-02
 -4.190264668E+00 2.221926020E-01 6.969520647E+04 1.017610476E+02 2.199042174E-02
 -3.868284857E+00 2.102949599E-01 6.969520641E+04 1.017612264E+02 3.361798727E-02
 -3.570156888E+00 1.992830998E-01 6.969521758E+04 1.017612942E+02 4.624775012E-02
 -3.293106050E+00 1.843540763E-01 6.969525316E+04 1.017611411E+02 5.976070009E-02
 -3.036437110E+00 1.698034550E-01 6.969531252E+04 1.017607331E+02 7.418309619E-02
 -2.798911389E+00 1.563423295E-01 6.969538870E+04 1.017601239E+02 8.955924575E-02
 -2.579143288E+00 1.438917637E-01 6.969548440E+04 1.017592809E+02 1.059695529E-01
 -2.375845341E+00 1.323784153E-01 6.969560382E+04 1.017581625E+02 1.235200019E-01
 -2.187821379E+00 1.217341460E-01 6.969575009E+04 1.017567340E+02 1.423249378E-01
 -2.013960166E+00 1.118956588E-01 6.969592733E+04 1.017549502E+02 1.625076670E-01
 -1.853229465E+00 1.028041597E-01 6.969614081E+04 1.017527540E+02 1.842037129E-01
 -1.704670524E+00 9.440504273E-02 6.969639669E+04 1.017500786E+02 2.075607391E-01
 -1.567392931E+00 8.664759616E-02 6.969670217E+04 1.017468450E+02 2.327387669E-01
 -1.440569836E+00 7.948472913E-02 6.969706580E+04 1.017429597E+02 2.599111474E-01
 -1.323433491E+00 7.287271689E-02 6.969749763E+04 1.017383118E+02 2.892654399E-01
 -1.215271105E+00 6.677096363E-02 6.969800950E+04 1.017327710E+02 3.210042611E-01
 -1.115420984E+00 6.114178150E-02 6.969861531E+04 1.017261837E+02 3.553462610E-01
 -1.023268939E+00 5.595018504E-02 6.969933136E+04 1.017183699E+02 3.925271814E-01
 -9.382449425E-01 5.116369968E-02 6.970017678E+04 1.017091178E+02 4.328009552E-01
 -8.598200142E-01 4.675218366E-02 6.970117393E+04 1.016981797E+02 4.764408235E-01
 -7.875033268E-01 4.268766220E-02 6.970234895E+04 1.016852657E+02 5.237405567E-01
 -7.208395109E-01 3.894417345E-02 6.970373238E+04 1.016700366E+02 5.750155781E-01
 -6.594061469E-01 3.549762507E-02 6.970535983E+04 1.016520967E+02 6.306045926E-01
 -6.028114324E-01 3.232566111E-02 6.970727275E+04 1.016309849E+02 6.908707164E-01
 -5.506920113E-01 2.940753826E-02 6.970951935E+04 1.016061655E+02 7.562021773E-01
 -5.027109549E-01 2.672401095E-02 6.971215559E+04 1.015770095E+02 8.270166613E-01
 -4.585558830E-01 2.425722485E-02 6.971524618E+04 1.015427901E+02 9.037514349E-01
 -4.179372172E-01 2.199061797E-02 6.971886647E+04 1.015026727E+02 9.868759873E-01
 -3.805865559E-01 1.990882911E-02 6.972310375E+04 1.014556859E+02 1.076913508E+00
 -3.462551627E-01 1.799761304E-02 6.972805814E+04 1.014007038E+02 1.174403802E+00
 -3.147125612E-01 1.624376197E-02 6.973384492E+04 1.013364243E+02 1.279909811E+00
 -2.857452284E-01 1.463503290E-02 6.974059730E+04 1.012613440E+02 1.394047580E+00
 -2.591553790E-01 1.316008037E-02 6.974846837E+04 1.011737309E+02 1.517473371E+00