TITLE     = "fluent22.1.0  build-id: 10213"
VARIABLES = "X"
"Y"
"Pressure"
"X Velocity"
"Y Velocity"
DATASETAUXDATA Common.DensityVar="23"
DATASETAUXDATA Common.PressureVar="3"
DATASETAUXDATA Common.TemperatureVar="12"
DATASETAUXDATA Common.TurbulentDynamicViscosityVar="17"
DATASETAUXDATA Common.UVar="5"
DATASETAUXDATA Common.VectorVarsAreVelocity="TRUE"
DATASETAUXDATA Common.ViscosityVar="25"
DATASETAUXDATA Common.VVar="7"
ZONE T="fluid"
 STRANDID=1, SOLUTIONTIME=0.645
 Nodes=10240, Elements=10080, ZONETYPE=FEQuadrilateral
 DATAPACKING=POINT
 DT=(DOUBLE DOUBLE DOUBLE DOUBLE DOUBLE )
 -4.856290020E+00 -7.872354469E-01 6.969782530E+04 1.017505096E+02 6.503325601E-03
 -4.486955224E+00 -7.103462502E-01 6.969791844E+04 1.017491238E+02 1.081027553E-02
 -4.884823481E+00 -5.813004056E-01 6.969730790E+04 1.017525026E+02 7.112404237E-03
 -4.512968918E+00 -5.224664536E-01 6.969738067E+04 1.017514194E+02 1.145144399E-02
 -4.144863831E+00 -6.391236770E-01 6.969808498E+04 1.017464438E+02 2.077473606E-02
 -4.168543650E+00 -4.679673980E-01 6.969751177E+04 1.017493232E+02 2.147232613E-02
 -3.828059441E+00 -5.731609538E-01 6.969821945E+04 1.017438695E+02 3.267031651E-02
 -3.849577925E+00 -4.174920630E-01 6.969761826E+04 1.017473045E+02 3.341816202E-02
 -3.534723392E+00 -5.120798847E-01 6.969836726E+04 1.017412063E+02 4.556799761E-02
 -3.554240672E+00 -3.707511605E-01 6.969773707E+04 1.017451997E+02 4.638021527E-02
 -3.260648607E+00 -4.698527961E-01 6.969857967E+04 1.017381192E+02 5.927152863E-02
 -3.278605595E+00 -3.398812180E-01 6.969791368E+04 1.017427044E+02 6.018399670E-02
 -3.006487270E+00 -4.334984087E-01 6.969884667E+04 1.017345760E+02 7.379945210E-02
 -3.023049173E+00 -3.136406577E-01 6.969813991E+04 1.017397845E+02 7.484607418E-02
 -2.771282055E+00 -3.998510143E-01 6.969914504E+04 1.017307458E+02 8.924726251E-02
 -2.786552933E+00 -2.893527691E-01 6.969839448E+04 1.017365972E+02 9.044672970E-02
 -2.553660910E+00 -3.687147618E-01 6.969948058E+04 1.017265561E+02 1.056971601E-01
 -2.567737292E+00 -2.668762986E-01 6.969868265E+04 1.017330760E+02 1.070678749E-01
 -2.352348958E+00 -3.399076678E-01 6.969986078E+04 1.017219275E+02 1.232418865E-01
 -2.365320373E+00 -2.460799934E-01 6.969901161E+04 1.017291453E+02 1.248057390E-01
 -2.166161722E+00 -3.132606492E-01 6.970028975E+04 1.017168061E+02 1.419857605E-01
 -2.178111197E+00 -2.268419041E-01 6.969938515E+04 1.017247555E+02 1.437675837E-01
 -1.993998830E+00 -2.886166241E-01 6.970077351E+04 1.017111199E+02 1.620414780E-01
 -2.005003348E+00 -2.090487362E-01 6.969980888E+04 1.017198401E+02 1.640693042E-01
 -1.834838136E+00 -2.658296746E-01 6.970131952E+04 1.017047847E+02 1.835307619E-01
 -1.844969071E+00 -1.925952464E-01 6.970028989E+04 1.017143192E+02 1.858363236E-01
 -1.687730258E+00 -2.447642672E-01 6.970193588E+04 1.016977081E+02 2.065845615E-01
 -1.697053773E+00 -1.773836804E-01 6.970083595E+04 1.017081051E+02 2.092040099E-01
 -1.551793491E+00 -2.252945275E-01 6.970263179E+04 1.016897856E+02 2.313434983E-01
 -1.560370905E+00 -1.633232502E-01 6.970145590E+04 1.017010982E+02 2.343180150E-01
 -1.426209063E+00 -2.073035642E-01 6.970341786E+04 1.016808976E+02 2.579579408E-01
 -1.434097203E+00 -1.503296466E-01 6.970216001E+04 1.016931833E+02 2.613346072E-01
 -1.310216731E+00 -1.906828414E-01 6.970430626E+04 1.016709073E+02 2.865883136E-01
 -1.317468250E+00 -1.383245871E-01 6.970296008E+04 1.016842285E+02 2.904210743E-01
 -1.203110670E+00 -1.753315928E-01 6.970531093E+04 1.016596586E+02 3.174053133E-01
 -1.209774347E+00 -1.272353932E-01 6.970386971E+04 1.016740820E+02 3.217560564E-01
 -1.104235653E+00 -1.611562779E-01 6.970644794E+04 1.016469718E+02 3.505903491E-01
 -1.110356670E+00 -1.169945988E-01 6.970490461E+04 1.016625686E+02 3.555299099E-01
 -1.012983494E+00 -1.480700746E-01 6.970773579E+04 1.016326408E+02 3.863351774E-01
 -1.018603694E+00 -1.075395845E-01 6.970608295E+04 1.016494861E+02 3.919452937E-01
 -9.287897346E-01 -1.359924080E-01 6.970919584E+04 1.016164284E+02 4.248430591E-01
 -9.339478612E-01 -9.881223792E-02 6.970742570E+04 1.016346011E+02 4.312176725E-01
 -8.511305633E-01 -1.248485114E-01 6.971085258E+04 1.015980590E+02 4.663287595E-01
 -8.558624867E-01 -9.075863732E-02 6.970895713E+04 1.016176442E+02 4.735744856E-01
 -7.795199493E-01 -1.145690176E-01 6.971273436E+04 1.015772181E+02 5.110164293E-01
 -7.838588711E-01 -8.332875723E-02 6.971070530E+04 1.015983029E+02 5.192575561E-01
 -7.135069725E-01 -1.050895790E-01 6.971487396E+04 1.015535417E+02 5.591415212E-01
 -7.174836194E-01 -7.647619438E-02 6.971270262E+04 1.015762149E+02 5.685212812E-01
 -6.526733408E-01 -9.635051377E-02 6.971730914E+04 1.015266097E+02 6.109520069E-01
 -6.563161433E-01 -7.015791259E-02 6.971498646E+04 1.015509620E+02 6.216315745E-01
 -5.966310799E-01 -8.829647596E-02 6.972008364E+04 1.014959379E+02 6.667099361E-01
 -5.999663392E-01 -6.433400530E-02 6.971760024E+04 1.015220656E+02 6.788690611E-01
 -5.450203841E-01 -8.087614933E-02 6.972324769E+04 1.014609649E+02 7.266843034E-01
 -5.480724263E-01 -5.896747438E-02 6.972059430E+04 1.014889683E+02 7.405348749E-01
 -4.975076166E-01 -7.404196166E-02 6.972685908E+04 1.014210467E+02 7.911506190E-01
 -5.002989366E-01 -5.402402415E-02 6.972402630E+04 1.014510235E+02 8.069398316E-01
 -4.537834497E-01 -6.774981881E-02 6.973098465E+04 1.013754376E+02 8.603983845E-01
 -4.563348446E-01 -4.947186948E-02 6.972796269E+04 1.014074893E+02 8.784011543E-01
 -4.135611348E-01 -6.195885717E-02 6.973570147E+04 1.013232773E+02 9.347267324E-01
 -4.158918275E-01 -4.528155698E-02 6.973248038E+04 1.013575064E+02 9.552556949E-01
 -3.765748932E-01 -5.663121291E-02 6.974109819E+04 1.012635747E+02 1.014442109E+00
 -3.787026477E-01 -4.142579833E-02 6.973766804E+04 1.013000829E+02 1.037854963E+00
 -3.425784196E-01 -5.173180708E-02 6.974727682E+04 1.011951873E+02 1.099858961E+00
 -3.445196480E-01 -3.787931491E-02 6.974362763E+04 1.012340761E+02 1.126561817E+00
 -3.113434907E-01 -4.722814535E-02 6.975435471E+04 1.011167986E+02 1.191299434E+00
 -3.131133520E-01 -3.461869292E-02 6.975047644E+04 1.011581690E+02 1.221752062E+00
 -2.826586709E-01 -4.309013141E-02 6.976246670E+04 1.010268925E+02 1.289092618E+00
 -2.842711633E-01 -3.162224827E-02 6.975834929E+04 1.010708440E+02 1.323815429E+00
 -2.563281091E-01 -3.928989303E-02 6.977176759E+04 1.009237232E+02 1.393574063E+00
 -2.577961556E-01 -2.886990063E-02 6.976740099E+04 1.009703540E+02 1.433155350E+00
 -2.321704205E-01 -3.580162011E-02 6.978243506E+04 1.008052815E+02 1.505085475E+00
 -2.335059479E-01 -2.634305601E-02 6.977780919E+04 1.008546874E+02 1.550189125E+00
 -2.100176460E-01 -3.260141382E-02 6.979467287E+04 1.006692542E+02 1.623974481E+00
 -2.112316589E-01 -2.402449728E-02 6.978977762E+04 1.007215290E+02 1.675348659E+00
 -1.897142859E-01 -2.966714611E-02 6.980871461E+04 1.005129781E+02 1.750594424E+00
 -1.908169348E-01 -2.189828231E-02 6.980353980E+04 1.005682129E+02 1.809081340E+00
 -1.711164016E-01 -2.697832915E-02 6.982482806E+04 1.003333851E+02 1.885304424E+00
 -1.721170465E-01 -1.994964916E-02 6.981936338E+04 1.003916686E+02 1.951851322E+00
 -1.540907801E-01 -2.451599388E-02 6.984332015E+04 1.001269378E+02 2.028468119E+00
 -1.549980490E-01 -1.816492800E-02 6.983755511E+04 1.001883562E+02 2.104139833E+00
 -1.385141580E-01 -2.226257739E-02 6.986454293E+04 9.988955170E+01 2.180456458E+00
 -1.393360022E-01 -1.653145937E-02 6.985846677E+04 9.995418735E+01 2.266450156E+00
 -1.242725008E-01 -2.020181841E-02 6.988890024E+04 9.961650373E+01 2.341636260E+00
 -1.250162448E-01 -1.503751847E-02 6.988250197E+04 9.968443665E+01 2.439297508E+00
 -1.112603325E-01 -1.831866063E-02 6.991685565E+04 9.930232521E+01 2.512375814E+00
 -1.119327216E-01 -1.367224517E-02 6.991012386E+04 9.937363158E+01 2.623219316E+00
 -9.938011355E-02 -1.659916329E-02 6.994894301E+04 9.894064880E+01 2.693042231E+00
 -9.998735709E-02 -1.242557940E-02 6.994186587E+04 9.901539627E+01 2.818777357E+00
 -8.854166234E-02 -1.503041865E-02 6.998577992E+04 9.852402848E+01 2.883977979E+00
 -8.908947440E-02 -1.128820161E-02 6.997834526E+04 9.860227510E+01 3.026538014E+00
 -7.866161850E-02 -1.360047588E-02 7.002808203E+04 9.804370413E+01 3.085483435E+00
 -7.915525532E-02 -1.025147807E-02 7.002027664E+04 9.812550683E+01 3.247066430E+00
 -6.966294409E-02 -1.229827087E-02 7.007668142E+04 9.748935977E+01 3.297750168E+00
 -7.010723888E-02 -9.307410477E-03 7.006849175E+04 9.757476511E+01 3.480897715E+00
 -6.147446056E-02 -1.111356175E-02 7.013254682E+04 9.684869394E+01 3.520828425E+00
 -6.187385575E-02 -8.448589882E-03 7.012396259E+04 9.693767734E+01 3.728510422E+00
 -5.403041875E-02 -1.003686954E-02 7.019682392E+04 9.610705429E+01 3.754612249E+00
 -5.438899591E-02 -7.668154296E-03 7.018783800E+04 9.619952055E+01 3.990256473E+00
 -4.727009980E-02 -9.059423055E-03 7.027084660E+04 9.524634629E+01 3.998758710E+00
 -4.759160729E-02 -6.959749614E-03 7.026145335E+04 9.534210281E+01 4.266340040E+00
 -4.113744455E-02 -8.173108623E-03 7.035617074E+04 9.424646809E+01 4.254078771E+00
 -4.142532322E-02 -6.317493865E-03 7.034635562E+04 9.434547069E+01 4.558124524E+00
 -3.558892684E-02 -7.321952374E-03 7.045434571E+04 9.308267900E+01 4.536745609E+00
 -3.584498731E-02 -5.691557196E-03 7.044403216E+04 9.318548807E+01 4.881475026E+00
 -3.060395943E-02 -6.338823802E-03 7.056727051E+04 9.172541303E+01 4.868762334E+00
 -3.082495453E-02 -4.928528997E-03 7.055633657E+04 9.183304552E+01 5.258008311E+00
 -2.609892463E-02 -5.450741469E-03 7.069799982E+04 9.013001339E+01 5.247768455E+00
 -2.628822892E-02 -4.239351947E-03 7.068633608E+04 9.024342240E+01 5.686916066E+00
 -2.203355330E-02 -4.649709761E-03 7.085049008E+04 8.823439632E+01 5.670597232E+00
 -2.219425830E-02 -3.617809850E-03 7.083798281E+04 8.835409701E+01 6.166876824E+00
 -1.837071935E-02 -3.928351461E-03 7.102926462E+04 8.595949101E+01 6.146588239E+00
 -1.850565568E-02 -3.058165917E-03 7.101580736E+04 8.608629839E+01 6.709338193E+00
 -1.507620524E-02 -3.279863462E-03 7.124048822E+04 8.319699159E+01 6.695418657E+00
 -1.518796305E-02 -2.555128852E-03 7.122587538E+04 8.333144258E+01 7.335395328E+00
 -1.211848439E-02 -2.697975416E-03 7.149185721E+04 7.977998860E+01 7.327883727E+00
 -1.220943232E-02 -2.103821111E-03 7.147595300E+04 7.992384983E+01 8.061338523E+00
 -9.468519432E-03 -2.176911106E-03 7.179520075E+04 7.546631607E+01 8.103790450E+00
 -9.540822070E-03 -1.699749188E-03 7.177753210E+04 7.561937490E+01 8.946057733E+00
 -7.099575056E-03 -1.711352327E-03 7.216285837E+04 6.983106176E+01 9.002845670E+00
 -7.155209112E-03 -1.338775774E-03 7.214350123E+04 6.999706312E+01 9.991359437E+00
 -4.987044468E-03 -1.296405075E-03 7.261444891E+04 6.222373460E+01 1.029074598E+01
 -5.027813723E-03 -1.017093636E-03 7.259199682E+04 6.239251946E+01 1.143811456E+01
 -3.108288475E-03 -9.275676493E-04 7.313481736E+04 5.161158399E+01 1.178304838E+01
 -3.135837592E-03 -7.312008449E-04 7.311091647E+04 5.178073471E+01 1.318223633E+01
 -1.442486267E-03 -6.007000883E-04 7.364017204E+04 3.763259629E+01 1.631948704E+01
 -1.458313554E-03 -4.778767921E-04 7.360829151E+04 3.788807494E+01 1.786244252E+01
 2.950318352E-05 -3.119902977E-04 7.387572474E+04 2.987851466E+01 2.019263894E+01
 2.403397564E-05 -2.541545121E-04 7.383477549E+04 3.021332266E+01 2.169672739E+01
 -4.904860300E+00 -3.743658139E-01 6.969678252E+04 1.017545484E+02 7.633347320E-03
 -4.531137325E+00 -3.336638674E-01 6.969683619E+04 1.017537603E+02 1.199987611E-02
 -4.184981491E+00 -2.959594076E-01 6.969693369E+04 1.017522408E+02 2.206773678E-02
 -3.864413143E+00 -2.610372786E-01 6.969701375E+04 1.017507774E+02 3.405160853E-02
 -3.567592006E+00 -2.286974684E-01 6.969710523E+04 1.017492278E+02 4.705925757E-02
 -3.290875341E+00 -2.092417870E-01 6.969724644E+04 1.017473258E+02 6.094250463E-02
 -3.034367109E+00 -1.931672123E-01 6.969743129E+04 1.017450357E+02 7.572097338E-02
 -2.796990059E+00 -1.782870951E-01 6.969764156E+04 1.017424938E+02 9.145727194E-02
 -2.577359469E+00 -1.645150613E-01 6.969788189E+04 1.017396417E+02 1.082317581E-01
 -2.374188683E+00 -1.517708509E-01 6.969815891E+04 1.017364108E+02 1.261444877E-01
 -2.186282288E+00 -1.399798915E-01 6.969847623E+04 1.017327556E+02 1.453051654E-01
 -2.012529746E+00 -1.290729019E-01 6.969883905E+04 1.017286153E+02 1.658322261E-01
 -1.851899472E+00 -1.189855233E-01 6.969925405E+04 1.017239155E+02 1.878548196E-01
 -1.703433316E+00 -1.096579755E-01 6.969972865E+04 1.017185735E+02 2.115128142E-01
 -1.566241429E+00 -1.010347377E-01 6.970027129E+04 1.017124945E+02 2.369570160E-01
 -1.439497480E+00 -9.306425099E-02 6.970089184E+04 1.017055685E+02 2.643497048E-01
 -1.322434202E+00 -8.569864179E-02 6.970160172E+04 1.016976683E+02 2.938651171E-01
 -1.214339254E+00 -7.889346438E-02 6.970241414E+04 1.016886469E+02 3.256899280E-01
 -1.114551358E+00 -7.260746129E-02 6.970334442E+04 1.016783340E+02 3.600238524E-01
 -1.022456711E+00 -6.680234043E-02 6.970441031E+04 1.016665320E+02 3.970801366E-01
 -9.374856419E-01 -6.144256760E-02 6.970563241E+04 1.016530120E+02 4.370861343E-01
 -8.591095034E-01 -5.649517341E-02 6.970703457E+04 1.016375089E+02 4.802840524E-01
 -7.868377761E-01 -5.192957356E-02 6.970864447E+04 1.016197149E+02 5.269309051E-01
 -7.202153764E-01 -4.771740149E-02 6.971049421E+04 1.015992742E+02 5.773001120E-01
 -6.588201496E-01 -4.383235261E-02 6.971262082E+04 1.015757705E+02 6.316814774E-01
 -6.022605392E-01 -4.025003916E-02 6.971506717E+04 1.015487255E+02 6.903775710E-01
 -5.501734171E-01 -3.694785496E-02 6.971788311E+04 1.015175886E+02 7.537077698E-01
 -5.022220657E-01 -3.390484944E-02 6.972112634E+04 1.014817168E+02 8.220201019E-01
 -4.580943012E-01 -3.110161008E-02 6.972486318E+04 1.014403693E+02 8.956754155E-01
 -4.175007271E-01 -2.852015278E-02 6.972916999E+04 1.013926914E+02 9.750424224E-01
 -3.801731103E-01 -2.614381956E-02 6.973413509E+04 1.013376934E+02 1.060514795E+00
 -3.458628710E-01 -2.395718303E-02 6.973986034E+04 1.012742333E+02 1.152507345E+00
 -3.143396781E-01 -2.194595720E-02 6.974646281E+04 1.012009952E+02 1.251452453E+00
 -2.853901432E-01 -2.009691411E-02 6.975407705E+04 1.011164630E+02 1.357802085E+00
 -2.588166062E-01 -1.839780609E-02 6.976285761E+04 1.010188903E+02 1.472029850E+00
 -2.344360064E-01 -1.683729301E-02 6.977298189E+04 1.009062666E+02 1.594631832E+00
 -2.120788333E-01 -1.540487457E-02 6.978465325E+04 1.007762773E+02 1.726128007E+00
 -1.915881503E-01 -1.409082706E-02 6.979810485E+04 1.006262578E+02 1.867064439E+00
 -1.728186887E-01 -1.288614455E-02 6.981360378E+04 1.004531387E+02 2.018015955E+00
 -1.556360043E-01 -1.178248429E-02 6.983145617E+04 1.002533827E+02 2.179588835E+00
 -1.399156946E-01 -1.077211601E-02 6.985201299E+04 1.000229034E+02 2.352426809E+00
 -1.255426712E-01 -9.847875152E-03 6.987567693E+04 9.975697891E+01 2.537207401E+00
 -1.124104831E-01 -9.003119678E-03 6.990290999E+04 9.945014063E+01 2.734653824E+00
 -1.004206893E-01 -8.231690361E-03 6.993424413E+04 9.909601642E+01 2.945539538E+00
 -8.948227487E-02 -7.527874423E-03 6.997029497E+04 9.868715594E+01 3.170679537E+00
 -7.951110909E-02 -6.886372248E-03 7.001177531E+04 9.821480068E+01 3.410932595E+00
 -7.042944235E-02 -6.302267015E-03 7.005951504E+04 9.766862592E+01 3.667187525E+00
 -6.216543866E-02 -5.770997048E-03 7.011448403E+04 9.703625062E+01 3.940363577E+00
 -5.465274179E-02 -5.288330578E-03 7.017782949E+04 9.630294469E+01 4.231353732E+00
 -4.783007237E-02 -4.850342674E-03 7.025088424E+04 9.545046320E+01 4.541029930E+00
 -4.164085393E-02 -4.453394216E-03 7.033519296E+04 9.445889489E+01 4.871289435E+00
 -3.603838706E-02 -4.053818886E-03 7.043221484E+04 9.330440450E+01 5.237061544E+00
 -3.099205807E-02 -3.511914824E-03 7.054374694E+04 9.195844014E+01 5.659381717E+00
 -2.643156668E-02 -3.022569570E-03 7.067284609E+04 9.037638248E+01 6.139717020E+00
 -2.231614850E-02 -2.581354213E-03 7.082346503E+04 8.849530961E+01 6.678913727E+00
 -1.860822088E-02 -2.184179703E-03 7.100012198E+04 8.623686450E+01 7.290430962E+00
 -1.527314556E-02 -1.827273321E-03 7.120878749E+04 8.349234990E+01 7.997109071E+00
 -1.227900832E-02 -1.507156582E-03 7.145725985E+04 8.009725274E+01 8.820852569E+00
 -9.596414780E-03 -1.220624486E-03 7.175673195E+04 7.580545558E+01 9.822217734E+00
 -7.198300892E-03 -9.647259876E-04 7.212046495E+04 7.020006596E+01 1.102253276E+01
 -5.059757276E-03 -7.367455896E-04 7.256522641E+04 6.260618270E+01 1.265691122E+01
 -3.157866323E-03 -5.341857271E-04 7.308122996E+04 5.200793856E+01 1.465324534E+01
 -1.471551132E-03 -3.547493914E-04 7.356980918E+04 3.818760620E+01 1.949748562E+01
 1.856476775E-05 -1.963187265E-04 7.378762863E+04 3.057081015E+01 2.333828499E+01
 -4.916318661E+00 -1.667794339E-01 6.969625544E+04 1.017566250E+02 7.991574649E-03
 -4.541384899E+00 -1.442595997E-01 6.969628996E+04 1.017561346E+02 1.238013356E-02
 -4.194107613E+00 -1.233961264E-01 6.969635318E+04 1.017551987E+02 2.249516181E-02
 -3.872500730E+00 -1.040701508E-01 6.969640599E+04 1.017542922E+02 3.453396674E-02
 -3.574718011E+00 -8.617118380E-02 6.969646990E+04 1.017532919E+02 4.760822734E-02
 -3.297403119E+00 -7.816728552E-02 6.969657543E+04 1.017519789E+02 6.158180538E-02
 -3.040390618E+00 -7.229271077E-02 6.969671839E+04 1.017503181E+02 7.647531655E-02
 -2.802546921E+00 -6.685183982E-02 6.969688391E+04 1.017484224E+02 9.234087135E-02
 -2.582484578E+00 -6.181336214E-02 6.969707589E+04 1.017462421E+02 1.092591481E-01
 -2.378914406E+00 -5.714818139E-02 6.969730030E+04 1.017437167E+02 1.273341161E-01
 -2.190638640E+00 -5.282926101E-02 6.969756060E+04 1.017408044E+02 1.466787250E-01
 -2.016544556E+00 -4.883148064E-02 6.969786159E+04 1.017374497E+02 1.674146805E-01
 -1.855598542E+00 -4.513150263E-02 6.969820952E+04 1.017335837E+02 1.896751251E-01
 -1.706840563E+00 -4.170764805E-02 6.969861141E+04 1.017291287E+02 2.136045403E-01
 -1.569379019E+00 -3.853978138E-02 6.969907530E+04 1.017239950E+02 2.393589227E-01
 -1.442385954E+00 -3.560920330E-02 6.969961064E+04 1.017180776E+02 2.671065326E-01
 -1.325092594E+00 -3.289855106E-02 6.970022844E+04 1.017112545E+02 2.970285322E-01
 -1.216785196E+00 -3.039170578E-02 6.970094146E+04 1.017033838E+02 3.293195993E-01
 -1.116801182E+00 -2.807370631E-02 6.970176459E+04 1.016943003E+02 3.641886227E-01
 -1.024525542E+00 -2.593066903E-02 6.970271514E+04 1.016838118E+02 4.018594575E-01
 -9.393874858E-01 -2.394971327E-02 6.970381325E+04 1.016716946E+02 4.425717501E-01
 -8.608573254E-01 -2.211889192E-02 6.970508234E+04 1.016576885E+02 4.865814329E-01
 -7.884435780E-01 -2.042712673E-02 6.970654961E+04 1.016414911E+02 5.341617098E-01
 -7.216902649E-01 -1.886414810E-02 6.970824668E+04 1.016227508E+02 5.856041358E-01
 -6.601744018E-01 -1.742043887E-02 6.971021025E+04 1.016010601E+02 6.412182724E-01
 -6.035036623E-01 -1.608718195E-02 6.971248281E+04 1.015759431E+02 7.013350186E-01
 -5.513142046E-01 -1.485621131E-02 6.971511353E+04 1.015468497E+02 7.663008713E-01
 -5.032686493E-01 -1.371996619E-02 6.971815950E+04 1.015131442E+02 8.364810678E-01
 -4.590541988E-01 -1.267144821E-02 6.972168700E+04 1.014740903E+02 9.122761600E-01
 -4.183808876E-01 -1.170418116E-02 6.972577222E+04 1.014288377E+02 9.941063777E-01
 -3.809799554E-01 -1.081217324E-02 6.973050283E+04 1.013764009E+02 1.082402717E+00
 -3.466023336E-01 -9.989881651E-03 6.973598017E+04 1.013156416E+02 1.177624281E+00
 -3.150172381E-01 -9.232179159E-03 6.974232102E+04 1.012452461E+02 1.280260460E+00
 -2.860108608E-01 -8.534322768E-03 6.974965958E+04 1.011637013E+02 1.390825889E+00
 -2.593851529E-01 -7.891924177E-03 6.975814996E+04 1.010692641E+02 1.509862420E+00
 -2.349566935E-01 -7.300922031E-03 6.976796903E+04 1.009599271E+02 1.637942742E+00
 -2.125556385E-01 -6.757555894E-03 6.977931966E+04 1.008333794E+02 1.775672653E+00
 -1.920247424E-01 -6.258341869E-03 6.979243431E+04 1.006869605E+02 1.923694009E+00
 -1.732184504E-01 -5.800049875E-03 6.980757930E+04 1.005176064E+02 2.082688677E+00
 -1.560020537E-01 -5.379682554E-03 6.982505976E+04 1.003217854E+02 2.253383480E+00
 -1.402509047E-01 -4.994455799E-03 6.984522548E+04 1.000954199E+02 2.436557385E+00
 -1.258496883E-01 -4.641780891E-03 6.986847766E+04 9.983379532E+01 2.633042377E+00
 -1.126917439E-01 -4.319248236E-03 6.989527662E+04 9.953145303E+01 2.843738370E+00
 -1.006784364E-01 -4.024612670E-03 6.992615219E+04 9.918203759E+01 3.069619728E+00
 -8.971857179E-02 -3.755780283E-03 6.996171727E+04 9.877811642E+01 3.311735450E+00
 -7.972785365E-02 -3.510796695E-03 7.000268155E+04 9.831094913E+01 3.571224958E+00
 -7.062837934E-02 -3.287836707E-03 7.004987138E+04 9.777023253E+01 3.849315401E+00
 -6.234817156E-02 -3.085195204E-03 7.010425227E+04 9.714360738E+01 4.147331925E+00
 -5.482074360E-02 -2.901279167E-03 7.016696696E+04 9.641637374E+01 4.466658579E+00
 -4.798469566E-02 -2.734600612E-03 7.023934263E+04 9.557028777E+01 4.808787496E+00
 -4.178334019E-02 -2.583770420E-03 7.032291988E+04 9.458547882E+01 5.176130030E+00
 -3.616852339E-02 -2.411301762E-03 7.041913776E+04 9.343833533E+01 5.583574502E+00
 -3.110475173E-02 -2.091186792E-03 7.052974859E+04 9.210066320E+01 6.051439147E+00
 -2.652849585E-02 -1.802275532E-03 7.065779909E+04 9.052793736E+01 6.582346978E+00
 -2.239885061E-02 -1.541931373E-03 7.080722778E+04 8.865714028E+01 7.179434649E+00
 -1.867810366E-02 -1.307717642E-03 7.098252052E+04 8.641047194E+01 7.858196419E+00
 -1.533149719E-02 -1.097384496E-03 7.118955699E+04 8.367928900E+01 8.643270673E+00
 -1.232700686E-02 -9.088565055E-04 7.143614073E+04 8.030034704E+01 9.561260470E+00
 -9.635136875E-03 -7.402208805E-04 7.173319821E+04 7.602600623E+01 1.067558163E+01
 -7.228729786E-03 -5.897162832E-04 7.209424417E+04 7.044322769E+01 1.202196378E+01
 -5.082790259E-03 -4.557221455E-04 7.253483953E+04 6.286904808E+01 1.384117674E+01
 -3.174321583E-03 -3.367482358E-04 7.304702297E+04 5.229795364E+01 1.608410780E+01
 -1.482174096E-03 -2.314238803E-04 7.352699180E+04 3.854838436E+01 2.110547838E+01
 1.309555987E-05 -1.384829409E-04 7.373711329E+04 3.098052544E+01 2.497637024E+01
 -4.919121367E+00 4.110405248E-02 6.969572575E+04 1.017587226E+02 8.237158110E-03
 -4.543640359E+00 4.541884559E-02 6.969574109E+04 1.017585293E+02 1.265048155E-02
 -4.195856213E+00 4.942012688E-02 6.969576974E+04 1.017581769E+02 2.281861438E-02
 -3.873779957E+00 5.313032395E-02 6.969579510E+04 1.017578279E+02 3.491433533E-02
 -3.575562652E+00 5.657029318E-02 6.969583153E+04 1.017573779E+02 4.804771165E-02
 -3.298137296E+00 5.310487195E-02 6.969590116E+04 1.017566598E+02 6.209415915E-02
 -3.041072092E+00 4.876393734E-02 6.969600161E+04 1.017556382E+02 7.708056562E-02
 -2.803179633E+00 4.475121196E-02 6.969612170E+04 1.017543985E+02 9.305447638E-02
 -2.583072183E+00 4.104285873E-02 6.969626471E+04 1.017528998E+02 1.100970261E-01
 -2.379460293E+00 3.761673206E-02 6.969643578E+04 1.017510907E+02 1.283150800E-01
 -2.191145950E+00 3.445226019E-02 6.969663819E+04 1.017489330E+02 1.478242740E-01
 -2.017016204E+00 3.153033542E-02 6.969687638E+04 1.017463763E+02 1.687491838E-01
 -1.856037226E+00 2.883321161E-02 6.969715614E+04 1.017433577E+02 1.912266174E-01
 -1.707248785E+00 2.634440854E-02 6.969748404E+04 1.017398047E+02 2.154055014E-01
 -1.569759099E+00 2.404862265E-02 6.969786771E+04 1.017356331E+02 2.414469991E-01
 -1.442740040E+00 2.193164379E-02 6.969831616E+04 1.017307434E+02 2.695253850E-01
 -1.325422678E+00 1.998027762E-02 6.969883991E+04 1.017250190E+02 2.998288082E-01
 -1.217093121E+00 1.818227322E-02 6.969945129E+04 1.017183237E+02 3.325600179E-01
 -1.117088655E+00 1.652625564E-02 6.970016468E+04 1.017104979E+02 3.679372239E-01
 -1.024794145E+00 1.500166308E-02 6.970099692E+04 1.017013550E+02 4.061950158E-01
 -9.396386830E-01 1.359868838E-02 6.970196763E+04 1.016906773E+02 4.475852638E-01
 -8.610924727E-01 1.230822461E-02 6.970309972E+04 1.016782104E+02 4.923781395E-01
 -7.886639301E-01 1.112181446E-02 6.970441988E+04 1.016636576E+02 5.408630696E-01
 -7.218969834E-01 1.003160320E-02 6.970595920E+04 1.016466733E+02 5.933498426E-01
 -6.603685613E-01 9.030295092E-03 6.970775382E+04 1.016268551E+02 6.501695010E-01
 -6.036862573E-01 8.111112931E-03 6.970984579E+04 1.016037350E+02 7.116752817E-01
 -5.514861548E-01 7.267760655E-03 6.971228387E+04 1.015767687E+02 7.782466635E-01
 -5.034308053E-01 6.494388773E-03 6.971512441E+04 1.015453233E+02 8.502804142E-01
 -4.592073473E-01 5.785562506E-03 6.971843284E+04 1.015086649E+02 9.281977405E-01
 -4.185257557E-01 5.136232466E-03 6.972228523E+04 1.014659514E+02 1.012461118E+00
 -3.811172152E-01 4.541707726E-03 6.972676906E+04 1.014162056E+02 1.103560113E+00
 -3.467326060E-01 3.997631147E-03 6.973198489E+04 1.013582916E+02 1.202000612E+00
 -3.151410967E-01 3.499956808E-03 6.973804877E+04 1.012909014E+02 1.308320478E+00
 -2.861288351E-01 3.044929371E-03 6.974509441E+04 1.012125255E+02 1.423098477E+00
 -2.594977315E-01 2.629065255E-03 6.975327538E+04 1.011214253E+02 1.546947642E+00
 -2.350643274E-01 2.249135412E-03 6.976276789E+04 1.010155986E+02 1.680518012E+00
 -2.126587433E-01 1.902149571E-03 6.977377401E+04 1.008927401E+02 1.824502119E+00
 -1.921237014E-01 1.585341745E-03 6.978652534E+04 1.007501957E+02 1.979639007E+00
 -1.733136164E-01 1.296156842E-03 6.980128713E+04 1.005849092E+02 2.146719290E+00
 -1.560937516E-01 1.032238183E-03 6.981836319E+04 1.003933579E+02 2.326591829E+00
 -1.403394334E-01 7.914157826E-04 6.983810173E+04 1.001714769E+02 2.520174257E+00
 -1.259353226E-01 5.716952106E-04 6.986090193E+04 9.991456419E+01 2.728454506E+00
 -1.127747364E-01 3.712469243E-04 6.988722179E+04 9.961717653E+01 2.952510109E+00
 -1.007590190E-01 1.883959365E-04 6.991758835E+04 9.927298234E+01 3.193521917E+00
 -8.979695743E-02 2.161174503E-05 6.995261079E+04 9.887457666E+01 3.452779494E+00
 -7.980423773E-02 -1.305015318E-04 6.999299429E+04 9.841325022E+01 3.731708108E+00
 -7.070294109E-02 -2.692148577E-04 7.003956005E+04 9.787873863E+01 4.031874393E+00
 -6.242107533E-02 -3.956837978E-04 7.009326683E+04 9.725872847E+01 4.355018570E+00
 -5.489214006E-02 -5.109578049E-04 7.015524980E+04 9.653857935E+01 4.703031995E+00
 -4.805472293E-02 -6.159892198E-04 7.022682647E+04 9.570011105E+01 5.078059258E+00
 -4.185212486E-02 -7.116419810E-04 7.030953173E+04 9.472342646E+01 5.483107826E+00
 -3.623482771E-02 -7.666210231E-04 7.040480186E+04 9.358500825E+01 5.932643042E+00
 -3.116254652E-02 -6.685941543E-04 7.051436102E+04 9.225688595E+01 6.446251874E+00
 -2.657859936E-02 -5.803883571E-04 7.064122613E+04 9.069477756E+01 7.027993580E+00
 -2.244201248E-02 -5.011613827E-04 7.078929791E+04 8.883586223E+01 7.683295309E+00
 -1.871501033E-02 -4.301308579E-04 7.096302346E+04 8.660286967E+01 8.429568064E+00
 -1.536277684E-02 -3.665716097E-04 7.116819369E+04 8.388722307E+01 9.293599502E+00
 -1.235323406E-02 -3.098129410E-04 7.141258999E+04 8.052715862E+01 1.030590065E+01
 -9.656836756E-03 -2.592358512E-04 7.170686353E+04 7.627418954E+01 1.153408404E+01
 -7.246382009E-03 -2.142701886E-04 7.206470483E+04 7.071985881E+01 1.302519235E+01
 -5.096832602E-03 -1.743917028E-04 7.250054790E+04 6.317403932E+01 1.502843715E+01
 -3.185153289E-03 -1.391188068E-04 7.300822943E+04 5.264428922E+01 1.750548883E+01
 -1.490158953E-03 -1.080083609E-04 7.347978675E+04 3.896546668E+01 2.269936305E+01
 7.626351982E-06 -8.064715534E-05 7.368282585E+04 3.143754166E+01 2.661008407E+01
 -4.913313371E+00 2.489252871E-01 6.969519359E+04 1.017608339E+02 8.334972998E-03
 -4.537945206E+00 2.350396809E-01 6.969518962E+04 1.017609406E+02 1.276557446E-02
 -4.190265600E+00 2.221830739E-01 6.969518324E+04 1.017611784E+02 2.297700500E-02
 -3.868286172E+00 2.102814929E-01 6.969518073E+04 1.017613923E+02 3.513180588E-02
 -3.570158540E+00 1.992661875E-01 6.969518949E+04 1.017614961E+02 4.833579024E-02
 -3.293107995E+00 1.843341596E-01 6.969522289E+04 1.017613779E+02 6.246435542E-02
 -3.036439308E+00 1.697809524E-01 6.969528032E+04 1.017610021E+02 7.754451808E-02
 -2.798913801E+00 1.563176287E-01 6.969535442E+04 1.017604259E+02 9.362199190E-02
 -2.579145879E+00 1.438652209E-01 6.969544785E+04 1.017596166E+02 1.107802393E-01
 -2.375848079E+00 1.323503573E-01 6.969556485E+04 1.017585325E+02 1.291294232E-01
 -2.187824236E+00 1.217048726E-01 6.969570853E+04 1.017571392E+02 1.487883983E-01
 -2.013963113E+00 1.118654450E-01 6.969588296E+04 1.017553917E+02 1.698853439E-01
 -1.853232479E+00 1.027732575E-01 6.969609342E+04 1.017532331E+02 1.925611750E-01
 -1.704673581E+00 9.437368261E-02 6.969634602E+04 1.017505966E+02 2.169694646E-01
 -1.567396011E+00 8.661598911E-02 6.969664797E+04 1.017474035E+02 2.432766681E-01
 -1.440572920E+00 7.945306784E-02 6.969700777E+04 1.017435602E+02 2.716631313E-01
 -1.323436562E+00 7.284117716E-02 6.969743547E+04 1.017389560E+02 3.023239987E-01
 -1.215274147E+00 6.673970548E-02 6.969794289E+04 1.017334607E+02 3.354700873E-01
 -1.115423983E+00 6.111095024E-02 6.969854388E+04 1.017269208E+02 3.713288968E-01
 -1.023271883E+00 5.591991214E-02 6.969925474E+04 1.017191561E+02 4.101456983E-01
 -9.382478186E-01 5.113410360E-02 6.970009454E+04 1.017099550E+02 4.521846780E-01
 -8.598228126E-01 4.672337046E-02 6.970108562E+04 1.016990699E+02 4.977301085E-01
 -7.875060385E-01 4.265972620E-02 6.970225409E+04 1.016862104E+02 5.470875711E-01
 -7.208421277E-01 3.891719762E-02 6.970363042E+04 1.016710377E+02 6.005853444E-01
 -6.594086620E-01 3.547168152E-02 6.970525017E+04 1.016531559E+02 6.585754430E-01
 -6.028138399E-01 3.230081138E-02 6.970715475E+04 1.016321034E+02 7.214352810E-01
 -5.506943064E-01 2.938383362E-02 6.970939232E+04 1.016073434E+02 7.895686728E-01
 -5.027131336E-01 2.670149266E-02 6.971201880E+04 1.015782518E+02 8.634106089E-01
 -4.585579424E-01 2.423592437E-02 6.971509881E+04 1.015440979E+02 9.434186620E-01
 -4.179391555E-01 2.197055719E-02 6.971870737E+04 1.015040386E+02 1.030078358E+00
 -3.805883720E-01 1.989002057E-02 6.972293164E+04 1.014571108E+02 1.123923526E+00
 -3.462568564E-01 1.798006018E-02 6.972787196E+04 1.014021896E+02 1.225525837E+00
 -3.147141332E-01 1.622745944E-02 6.973364350E+04 1.013379681E+02 1.335477895E+00
 -2.857466802E-01 1.461996686E-02 6.974037898E+04 1.012629443E+02 1.454410220E+00
 -2.591567131E-01 1.314622893E-02 6.974823129E+04 1.011753849E+02 1.583006135E+00