TITLE     = "fluent22.1.0  build-id: 10213"
VARIABLES = "X"
"Y"
"Pressure"
"X Velocity"
"Y Velocity"
DATASETAUXDATA Common.DensityVar="23"
DATASETAUXDATA Common.PressureVar="3"
DATASETAUXDATA Common.TemperatureVar="12"
DATASETAUXDATA Common.TurbulentDynamicViscosityVar="17"
DATASETAUXDATA Common.UVar="5"
DATASETAUXDATA Common.VectorVarsAreVelocity="TRUE"
DATASETAUXDATA Common.ViscosityVar="25"
DATASETAUXDATA Common.VVar="7"
ZONE T="fluid"
 STRANDID=1, SOLUTIONTIME=0.6625
 Nodes=10240, Elements=10080, ZONETYPE=FEQuadrilateral
 DATAPACKING=POINT
 DT=(DOUBLE DOUBLE DOUBLE DOUBLE DOUBLE )
 -4.856290020E+00 -7.872354469E-01 6.969791834E+04 1.017501450E+02 6.808468062E-03
 -4.486955768E+00 -7.103513984E-01 6.969801372E+04 1.017487138E+02 1.130314122E-02
 -4.884823481E+00 -5.813004056E-01 6.969737876E+04 1.017522248E+02 7.436500113E-03
 -4.512969454E+00 -5.224715659E-01 6.969745302E+04 1.017511088E+02 1.196349697E-02
 -4.144864854E+00 -6.391333713E-01 6.969818415E+04 1.017459454E+02 2.170170205E-02
 -4.168544660E+00 -4.679770278E-01 6.969758670E+04 1.017489490E+02 2.241851660E-02
 -3.828060884E+00 -5.731746421E-01 6.969832143E+04 1.017432871E+02 3.411579354E-02
 -3.849579350E+00 -4.175056639E-01 6.969769496E+04 1.017468701E+02 3.488242754E-02
 -3.534725202E+00 -5.120970594E-01 6.969847226E+04 1.017405416E+02 4.757720866E-02
 -3.554242460E+00 -3.707682298E-01 6.969781569E+04 1.017447069E+02 4.840803447E-02
 -3.260650738E+00 -4.698730068E-01 6.969868968E+04 1.017373622E+02 6.188191640E-02
 -3.278607700E+00 -3.399013117E-01 6.969799590E+04 1.017421446E+02 6.281385028E-02
 -3.006489677E+00 -4.335212335E-01 6.969896328E+04 1.017337152E+02 7.704880973E-02
 -3.023051551E+00 -3.136633555E-01 6.969822710E+04 1.017391478E+02 7.811669761E-02
 -2.771284697E+00 -3.998760624E-01 6.969926876E+04 1.017297782E+02 9.317671956E-02
 -2.786555544E+00 -2.893776814E-01 6.969848701E+04 1.017358815E+02 9.439952232E-02
 -2.553663750E+00 -3.687416747E-01 6.969961201E+04 1.017254772E+02 1.103511008E-01
 -2.567740098E+00 -2.669030677E-01 6.969878096E+04 1.017322779E+02 1.117474016E-01
 -2.352351960E+00 -3.399361162E-01 6.970000068E+04 1.017207312E+02 1.286685792E-01
 -2.365323340E+00 -2.461082910E-01 6.969911628E+04 1.017282599E+02 1.302604981E-01
 -2.166164857E+00 -3.132903313E-01 6.970043888E+04 1.017154856E+02 1.482379067E-01
 -2.178114293E+00 -2.268714290E-01 6.969949676E+04 1.017237775E+02 1.500505180E-01
 -1.994002068E+00 -2.886472630E-01 6.970093268E+04 1.017096677E+02 1.691766323E-01
 -2.005006546E+00 -2.090792125E-01 6.969992804E+04 1.017187635E+02 1.712382146E-01
 -1.834841450E+00 -2.658610167E-01 6.970148963E+04 1.017031921E+02 1.916118001E-01
 -1.844972344E+00 -1.926264210E-01 6.970041726E+04 1.017131375E+02 1.939543275E-01
 -1.687733624E+00 -2.447960802E-01 6.970211788E+04 1.016959656E+02 2.156801652E-01
 -1.697057096E+00 -1.774153217E-01 6.970097226E+04 1.017068108E+02 2.183400179E-01
 -1.551796886E+00 -2.253265988E-01 6.970282671E+04 1.016878827E+02 2.415286071E-01
 -1.560374256E+00 -1.633551462E-01 6.970160192E+04 1.016996830E+02 2.445472237E-01
 -1.426212468E+00 -2.073356995E-01 6.970362680E+04 1.016788226E+02 2.693143276E-01
 -1.434100563E+00 -1.503616037E-01 6.970231655E+04 1.016916384E+02 2.727390339E-01
 -1.310220127E+00 -1.907148634E-01 6.970453038E+04 1.016686477E+02 2.992050573E-01
 -1.317471600E+00 -1.383564284E-01 6.970312802E+04 1.016825439E+02 3.030900733E-01
 -1.203114040E+00 -1.753633398E-01 6.970555149E+04 1.016572005E+02 3.313794879E-01
 -1.209777670E+00 -1.272669578E-01 6.970404999E+04 1.016722470E+02 3.357869831E-01
 -1.104238982E+00 -1.611876029E-01 6.970670625E+04 1.016443004E+02 3.660275313E-01
 -1.110359951E+00 -1.170257403E-01 6.970509822E+04 1.016605715E+02 3.710287239E-01
 -1.012986767E+00 -1.481008444E-01 6.970801326E+04 1.016297399E+02 4.033505383E-01
 -1.018606918E+00 -1.075701704E-01 6.970629092E+04 1.016473145E+02 4.090271442E-01
 -9.287929392E-01 -1.360225024E-01 6.970949389E+04 1.016132806E+02 4.435612500E-01
 -9.339510174E-01 -9.884214857E-02 6.970764914E+04 1.016322414E+02 4.500075412E-01
 -8.511336882E-01 -1.248778224E-01 6.971117282E+04 1.015946470E+02 4.868849364E-01
 -8.558655630E-01 -9.078776554E-02 6.970919719E+04 1.016150814E+02 4.942083555E-01
 -7.795229844E-01 -1.145974490E-01 6.971307846E+04 1.015735210E+02 5.335585384E-01
 -7.838618575E-01 -8.335700752E-02 6.971096319E+04 1.015955220E+02 5.418823641E-01
 -7.135099085E-01 -1.051170459E-01 6.971524348E+04 1.015495367E+02 5.838293295E-01
 -7.174865068E-01 -7.650348249E-02 6.971297955E+04 1.015731988E+02 5.932969972E-01
 -6.526761697E-01 -9.637694198E-02 6.971770581E+04 1.015222755E+02 6.379563956E-01
 -6.563189241E-01 -7.018416514E-02 6.971528376E+04 1.015476946E+02 6.487315814E-01
 -5.966337948E-01 -8.832180188E-02 6.972050931E+04 1.014912507E+02 6.962156402E-01
 -5.999690065E-01 -6.435915944E-02 6.971791925E+04 1.015185266E+02 7.084800281E-01
 -5.450229791E-01 -8.090031963E-02 6.972370419E+04 1.014558992E+02 7.588940391E-01
 -5.480749744E-01 -5.899147751E-02 6.972093620E+04 1.014851355E+02 7.728555497E-01
 -4.975100867E-01 -7.406493302E-02 6.972734832E+04 1.014155752E+02 8.262838415E-01
 -5.003013608E-01 -5.404683370E-02 6.972439247E+04 1.014468772E+02 8.421883020E-01
 -4.537857912E-01 -6.777155777E-02 6.973150853E+04 1.013695316E+02 8.986892943E-01
 -4.563371412E-01 -4.949345268E-02 6.972835465E+04 1.014030052E+02 9.168163876E-01
 -4.135633447E-01 -6.197933991E-02 6.973626192E+04 1.013169065E+02 9.764274963E-01
 -4.158939939E-01 -4.530189068E-02 6.973289950E+04 1.013526602E+02 9.970900242E-01
 -3.765769696E-01 -5.665042509E-02 6.974169715E+04 1.012567071E+02 1.059825331E+00
 -3.787046822E-01 -4.144486880E-02 6.973811559E+04 1.012948494E+02 1.083379713E+00
 -3.425803616E-01 -5.174974361E-02 6.974791620E+04 1.011877892E+02 1.149218128E+00
 -3.445215497E-01 -3.789711760E-02 6.974410490E+04 1.012284281E+02 1.176070791E+00
 -3.113452982E-01 -4.724481016E-02 6.975503639E+04 1.011088346E+02 1.244950169E+00
 -3.131151212E-01 -3.463523220E-02 6.975098468E+04 1.011520773E+02 1.275561509E+00
 -2.826603449E-01 -4.310553709E-02 6.976319250E+04 1.010183248E+02 1.347374436E+00
 -2.842728010E-01 -3.163753712E-02 6.975888967E+04 1.010642779E+02 1.382265187E+00
 -2.563296514E-01 -3.930406053E-02 6.977253931E+04 1.009145119E+02 1.456852053E+00
 -2.577976637E-01 -2.888396026E-02 6.976797459E+04 1.009632805E+02 1.496610840E+00
 -2.321718337E-01 -3.581457825E-02 6.978325438E+04 1.007953841E+02 1.573752154E+00
 -2.335073291E-01 -2.635591537E-02 6.977841699E+04 1.008470713E+02 1.619043307E+00
 -2.100189335E-01 -3.261319876E-02 6.979554140E+04 1.006586253E+02 1.698451975E+00
 -2.112329168E-01 -2.403619256E-02 6.979042045E+04 1.007133324E+02 1.750024168E+00
 -1.897154520E-01 -2.967780074E-02 6.980963386E+04 1.005015687E+02 1.831336955E+00
 -1.908180737E-01 -2.190885631E-02 6.980421838E+04 1.005593949E+02 1.890033001E+00
 -1.711174512E-01 -2.698790237E-02 6.982579941E+04 1.003211422E+02 1.972801244E+00
 -1.721180712E-01 -1.995915058E-02 6.982007823E+04 1.003821844E+02 2.039569133E+00
 -1.540917185E-01 -2.452453982E-02 6.984434490E+04 1.001138035E+02 2.123246839E+00
 -1.549989651E-01 -1.817341065E-02 6.983830660E+04 1.001781566E+02 2.199152371E+00
 -1.385149914E-01 -2.227015454E-02 6.986562226E+04 9.987546167E+01 2.283087237E+00
 -1.393368155E-01 -1.653898132E-02 6.985925508E+04 9.994321761E+01 2.369328683E+00
 -1.242732355E-01 -2.020848873E-02 6.989003525E+04 9.960138649E+01 2.452736413E+00
 -1.250169618E-01 -1.504414119E-02 6.988332709E+04 9.967263561E+01 2.550660643E+00
 -1.112609753E-01 -1.832448859E-02 6.991804738E+04 9.928610015E+01 2.632615974E+00
 -1.119333489E-01 -1.367803256E-02 6.991098558E+04 9.936093006E+01 2.743739474E+00
 -9.938067144E-02 -1.660421492E-02 6.995019251E+04 9.892322318E+01 2.823153721E+00
 -9.998790150E-02 -1.243059687E-02 6.994276384E+04 9.900171414E+01 2.949188181E+00
 -8.854214239E-02 -1.503476059E-02 6.998708845E+04 9.850529426E+01 3.024761500E+00
 -8.908994291E-02 -1.129251516E-02 6.997927915E+04 9.858751840E+01 3.167643108E+00
 -7.866202784E-02 -1.360417447E-02 7.002945101E+04 9.802353383E+01 3.237819668E+00
 -7.915565489E-02 -1.025515336E-02 7.002124603E+04 9.810956430E+01 3.399750157E+00
 -6.966328975E-02 -1.230139128E-02 7.007811273E+04 9.746760228E+01 3.462614398E+00
 -7.010757638E-02 -9.310512026E-03 7.006949626E+04 9.755750536E+01 3.646140322E+00
 -6.147474939E-02 -1.111616722E-02 7.013404286E+04 9.682516378E+01 3.699306088E+00
 -6.187413786E-02 -8.451180306E-03 7.012500193E+04 9.691893748E+01 3.907403805E+00
 -5.403065738E-02 -1.003902070E-02 7.019838794E+04 9.608153396E+01 3.947929070E+00
 -5.438922907E-02 -7.670293631E-03 7.018891234E+04 9.617911195E+01 4.184035237E+00
 -4.727029452E-02 -9.061177364E-03 7.027248201E+04 9.521855112E+01 4.208280796E+00
 -4.759179764E-02 -6.961494758E-03 7.026256182E+04 9.531977853E+01 4.476362197E+00
 -4.113760127E-02 -8.174519876E-03 7.035787945E+04 9.421614076E+01 4.481394281E+00
 -4.142547650E-02 -6.318898122E-03 7.034749724E+04 9.432098217E+01 4.785991379E+00
 -3.558905097E-02 -7.323070206E-03 7.045610603E+04 9.304968268E+01 4.783749541E+00
 -3.584510880E-02 -5.692669854E-03 7.044518350E+04 9.315872365E+01 5.129159385E+00
 -3.060405573E-02 -6.339693226E-03 7.056902559E+04 9.168984279E+01 5.137639071E+00
 -3.082504889E-02 -4.929394979E-03 7.055743274E+04 9.180416561E+01 5.527630451E+00
 -2.609899781E-02 -5.451404119E-03 7.069970093E+04 9.009190767E+01 5.541202882E+00
 -2.628830072E-02 -4.240012423E-03 7.068732410E+04 9.021247473E+01 5.981081627E+00
 -2.203360757E-02 -4.650202842E-03 7.085209479E+04 8.819327818E+01 5.991755837E+00
 -2.219431162E-02 -3.618301653E-03 7.083881794E+04 8.832062892E+01 6.488823102E+00
 -1.837075844E-02 -3.928707843E-03 7.103072933E+04 8.591512532E+01 6.499504202E+00
 -1.850569414E-02 -3.058521622E-03 7.101643431E+04 8.605016573E+01 7.063105187E+00
 -1.507623237E-02 -3.280111843E-03 7.124170523E+04 8.314833281E+01 7.084916707E+00
 -1.518798979E-02 -2.555376936E-03 7.122617319E+04 8.329169535E+01 7.725874597E+00
 -1.211850235E-02 -2.698140550E-03 7.149276282E+04 7.972752503E+01 7.761042542E+00
 -1.220945005E-02 -2.103986167E-03 7.147583824E+04 7.988118657E+01 8.495365171E+00
 -9.468530582E-03 -2.177014075E-03 7.179544619E+04 7.540614426E+01 8.588883555E+00
 -9.540833095E-03 -1.699852183E-03 7.177663254E+04 7.557003501E+01 9.432449621E+00
 -7.099581359E-03 -1.711410831E-03 7.216245770E+04 6.976929280E+01 9.555362530E+00
 -7.155215356E-03 -1.338834339E-03 7.214179657E+04 6.994778066E+01 1.054330038E+01
 -4.987047540E-03 -1.296433745E-03 7.261190549E+04 6.213959089E+01 1.093007374E+01
 -5.027816772E-03 -1.017122360E-03 7.258795226E+04 6.232191480E+01 1.207887856E+01
 -3.108289613E-03 -9.275783342E-04 7.313139188E+04 5.154089075E+01 1.254304200E+01
 -3.135838724E-03 -7.312115607E-04 7.310578481E+04 5.172518927E+01 1.393700731E+01
 -1.442486478E-03 -6.007020878E-04 7.362900748E+04 3.746793984E+01 1.729571335E+01
 -1.458313765E-03 -4.778788000E-04 7.359499574E+04 3.774125136E+01 1.883783542E+01
 2.950318352E-05 -3.119902977E-04 7.385568765E+04 2.957902677E+01 2.131160307E+01
 2.403397564E-05 -2.541545121E-04 7.381228179E+04 2.993264802E+01 2.283044983E+01
 -4.904860300E+00 -3.743658139E-01 6.969683094E+04 1.017543589E+02 7.972426578E-03
 -4.531137855E+00 -3.336689518E-01 6.969688542E+04 1.017535504E+02 1.252697996E-02
 -4.184982489E+00 -2.959689878E-01 6.969698427E+04 1.017519916E+02 2.302865623E-02
 -3.864414552E+00 -2.610508126E-01 6.969706513E+04 1.017504916E+02 3.552970060E-02
 -3.567593775E+00 -2.287144578E-01 6.969715752E+04 1.017489071E+02 4.910000913E-02
 -3.290877423E+00 -2.092617915E-01 6.969730096E+04 1.017469634E+02 6.358533356E-02
 -3.034369461E+00 -1.931898130E-01 6.969748914E+04 1.017446234E+02 7.900566258E-02
 -2.796992642E+00 -1.783119032E-01 6.969770299E+04 1.017420300E+02 9.542551431E-02
 -2.577362244E+00 -1.645417200E-01 6.969794716E+04 1.017391241E+02 1.129282724E-01
 -2.374191618E+00 -1.517990324E-01 6.969822843E+04 1.017358357E+02 1.316179867E-01
 -2.186285351E+00 -1.400092954E-01 6.969855040E+04 1.017321192E+02 1.516087946E-01
 -2.012532908E+00 -1.291032528E-01 6.969891827E+04 1.017279134E+02 1.730239616E-01
 -1.851902708E+00 -1.190165686E-01 6.969933878E+04 1.017231434E+02 1.959979532E-01
 -1.703436601E+00 -1.096894841E-01 6.969981935E+04 1.017177258E+02 2.206764411E-01
 -1.566244741E+00 -1.010664981E-01 6.970036848E+04 1.017115655E+02 2.472165213E-01
 -1.439500799E+00 -9.309606995E-02 6.970099608E+04 1.017045517E+02 2.757872971E-01
 -1.322437510E+00 -8.573034306E-02 6.970171358E+04 1.016965568E+02 3.065703742E-01
 -1.214342535E+00 -7.892488741E-02 6.970253425E+04 1.016874330E+02 3.397604054E-01
 -1.114554596E+00 -7.263846023E-02 6.970347343E+04 1.016770093E+02 3.755656878E-01
 -1.022459892E+00 -6.683278325E-02 6.970454891E+04 1.016650875E+02 4.142087695E-01
 -9.374887539E-01 -6.147233527E-02 6.970578132E+04 1.016514381E+02 4.559269290E-01
 -8.591125353E-01 -5.652415922E-02 6.970719456E+04 1.016357948E+02 5.009728970E-01
 -7.868407180E-01 -5.195768256E-02 6.970881631E+04 1.016178492E+02 5.496157156E-01
 -7.202182194E-01 -4.774455002E-02 6.971067866E+04 1.015972446E+02 6.021401653E-01
 -6.588228862E-01 -4.385846786E-02 6.971281876E+04 1.015735657E+02 6.588497688E-01
 -6.022631628E-01 -4.027505885E-02 6.971527955E+04 1.015463321E+02 7.200627588E-01
 -5.501759220E-01 -3.697172709E-02 6.971811064E+04 1.015149870E+02 7.861133318E-01
 -5.022244476E-01 -3.392753199E-02 6.972136963E+04 1.014788923E+02 8.573590024E-01
 -4.580965566E-01 -3.112307084E-02 6.972512316E+04 1.014373066E+02 9.341820712E-01
 -4.175028533E-01 -2.854036912E-02 6.972944768E+04 1.013893696E+02 1.016976017E+00
 -3.801751059E-01 -2.616277823E-02 6.973443120E+04 1.013340934E+02 1.106147459E+00
 -3.458647355E-01 -2.397487991E-02 6.974017541E+04 1.012703352E+02 1.202131722E+00
 -3.143414117E-01 -2.196239703E-02 6.974679743E+04 1.011967767E+02 1.305385322E+00
 -2.853917470E-01 -2.011211017E-02 6.975443173E+04 1.011119001E+02 1.416384113E+00
 -2.588180824E-01 -1.841177980E-02 6.976323273E+04 1.010139574E+02 1.535627046E+00
 -2.344373578E-01 -1.685007348E-02 6.977337765E+04 1.009009359E+02 1.663637856E+00
 -2.120800635E-01 -1.541649803E-02 6.978506973E+04 1.007705188E+02 1.800966367E+00
 -1.915892637E-01 -1.410133625E-02 6.979854189E+04 1.006200386E+02 1.948190982E+00
 -1.728196901E-01 -1.289558804E-02 6.981406103E+04 1.004464230E+02 2.105921922E+00
 -1.556368992E-01 -1.179091566E-02 6.983193301E+04 1.002461303E+02 2.274804296E+00
 -1.399164891E-01 -1.077959306E-02 6.985250857E+04 1.000150696E+02 2.455525172E+00
 -1.255433714E-01 -9.854458971E-03 6.987619006E+04 9.974851348E+01 2.648810028E+00
 -1.124110956E-01 -9.008873747E-03 6.990343914E+04 9.944098651E+01 2.855436137E+00
 -1.004212209E-01 -8.236679626E-03 6.993478748E+04 9.908610674E+01 3.076238910E+00
 -8.948273237E-02 -7.532164380E-03 6.997085048E+04 9.867641161E+01 3.312104355E+00
 -7.951149931E-02 -6.890028067E-03 7.001234061E+04 9.820312749E+01 3.563973600E+00
 -7.042977201E-02 -6.305352715E-03 7.006008743E+04 9.765591208E+01 3.832832587E+00
 -6.216571430E-02 -5.773574749E-03 7.011506049E+04 9.702235773E+01 4.119714182E+00
 -5.465296969E-02 -5.290459851E-03 7.017840696E+04 9.628770741E+01 4.425652675E+00
 -4.783025849E-02 -4.852079979E-03 7.025145843E+04 9.543366829E+01 4.751669619E+00
 -4.164100388E-02 -4.454792464E-03 7.033575757E+04 9.444033739E+01 5.099877012E+00
 -3.603850598E-02 -4.054927080E-03 7.043274290E+04 9.328398695E+01 5.485547066E+00
 -3.099215054E-02 -3.512777797E-03 7.054417240E+04 9.193633460E+01 5.929918475E+00
 -2.643163713E-02 -3.023228113E-03 7.067311075E+04 9.035267625E+01 6.434894123E+00
 -2.231620088E-02 -2.581844851E-03 7.082351671E+04 8.846959891E+01 7.001998753E+00
 -1.860825872E-02 -2.184534769E-03 7.099989561E+04 8.620907270E+01 7.645488907E+00
 -1.527317190E-02 -1.827521104E-03 7.120814937E+04 8.346159443E+01 8.389227100E+00
 -1.227902582E-02 -1.507321537E-03 7.145610951E+04 8.006441165E+01 9.256648846E+00
 -9.596425678E-03 -1.220727484E-03 7.175466551E+04 7.576670259E+01 1.031151218E+01
 -7.198307075E-03 -9.647845946E-04 7.211743950E+04 7.016307976E+01 1.157640762E+01
 -5.059760303E-03 -7.367743574E-04 7.255959076E+04 6.254904746E+01 1.330124544E+01
 -3.157867449E-03 -5.341964706E-04 7.307432423E+04 5.196887643E+01 1.540944661E+01
 -1.471551342E-03 -3.547514076E-04 7.355435330E+04 3.806086350E+01 2.047557296E+01
 1.856476775E-05 -1.963187265E-04 7.376257920E+04 3.031053658E+01 2.448201042E+01
 -4.916318661E+00 -1.667794339E-01 6.969628145E+04 1.017565245E+02 8.338571433E-03
 -4.541385424E+00 -1.442646645E-01 6.969631609E+04 1.017560261E+02 1.291504458E-02
 -4.194108601E+00 -1.234056721E-01 6.969637942E+04 1.017550752E+02 2.346363761E-02
 -3.872502125E+00 -1.040836389E-01 6.969643203E+04 1.017541557E+02 3.601944730E-02
 -3.574719762E+00 -8.618811873E-02 6.969649584E+04 1.017531437E+02 4.965639906E-02
 -3.297405182E+00 -7.818722897E-02 6.969660223E+04 1.017518139E+02 6.423259881E-02
 -3.040392948E+00 -7.231524449E-02 6.969674688E+04 1.017501299E+02 7.976902998E-02
 -2.802549479E+00 -6.687657577E-02 6.969691419E+04 1.017482100E+02 9.631927887E-02
 -2.582487327E+00 -6.183994391E-02 6.969710810E+04 1.017460043E+02 1.139669924E-01
 -2.378917313E+00 -5.717628187E-02 6.969733466E+04 1.017434512E+02 1.328201941E-01
 -2.190641672E+00 -5.285858012E-02 6.969759731E+04 1.017405089E+02 1.529962879E-01
 -2.016547687E+00 -4.886174325E-02 6.969790085E+04 1.017371218E+02 1.746218152E-01
 -1.855601744E+00 -4.516245667E-02 6.969825157E+04 1.017332205E+02 1.978352458E-01
 -1.706843813E+00 -4.173906274E-02 6.969865647E+04 1.017287271E+02 2.227868726E-01
 -1.569382295E+00 -3.857144562E-02 6.969912365E+04 1.017235516E+02 2.496389933E-01
 -1.442389236E+00 -3.564092421E-02 6.969966255E+04 1.017175886E+02 2.785666973E-01
 -1.325095865E+00 -3.293015268E-02 6.970028418E+04 1.017107157E+02 3.097585296E-01
 -1.216788438E+00 -3.042302791E-02 6.970100136E+04 1.017027907E+02 3.434171492E-01
 -1.116804381E+00 -2.810460345E-02 6.970182897E+04 1.016936478E+02 3.797600591E-01
 -1.024528684E+00 -2.596100950E-02 6.970278433E+04 1.016830944E+02 4.190203699E-01
 -9.393905578E-01 -2.397937841E-02 6.970388761E+04 1.016709064E+02 4.614476406E-01
 -8.608603171E-01 -2.214777541E-02 6.970516221E+04 1.016568229E+02 5.073086197E-01
 -7.884464794E-01 -2.045513401E-02 6.970663537E+04 1.016405411E+02 5.568879804E-01
 -7.216930675E-01 -1.889119590E-02 6.970833867E+04 1.016217086E+02 6.104892690E-01
 -6.601770982E-01 -1.744645480E-02 6.971030882E+04 1.015999169E+02 6.684352469E-01
 -6.035062460E-01 -1.611210417E-02 6.971258839E+04 1.015746920E+02 7.310708247E-01
 -5.513166702E-01 -1.487998821E-02 6.971522652E+04 1.015454806E+02 7.987601714E-01
 -5.032709925E-01 -1.374255617E-02 6.971828004E+04 1.015116424E+02 8.718850534E-01
 -4.590564163E-01 -1.269281945E-02 6.972181516E+04 1.014724471E+02 9.508533332E-01
 -4.183829770E-01 -1.172431142E-02 6.972590839E+04 1.014270418E+02 1.036108933E+00
 -3.809819154E-01 -1.083104964E-02 6.973064735E+04 1.013744365E+02 1.128110048E+00
 -3.466041637E-01 -1.000750039E-02 6.973613300E+04 1.013134952E+02 1.227329790E+00
 -3.150189387E-01 -9.248545261E-03 6.974248199E+04 1.012429031E+02 1.334279656E+00
 -2.860124334E-01 -8.549449752E-03 6.974982851E+04 1.011611446E+02 1.449499773E+00
 -2.593865996E-01 -7.905833646E-03 6.975832652E+04 1.010664752E+02 1.573557466E+00
 -2.349580173E-01 -7.313643213E-03 6.976815269E+04 1.009568860E+02 1.707052798E+00
 -2.125568429E-01 -6.769125089E-03 6.977950968E+04 1.008300640E+02 1.850621448E+00
 -1.920258319E-01 -6.268801827E-03 6.979262971E+04 1.006833466E+02 2.004937643E+00
 -1.732194300E-01 -5.809449093E-03 6.980777881E+04 1.005136669E+02 2.170718637E+00
 -1.560029289E-01 -5.388074500E-03 6.982526180E+04 1.003174899E+02 2.348730167E+00
 -1.402516814E-01 -5.001898078E-03 6.984542811E+04 1.000907339E+02 2.539794548E+00
 -1.258503726E-01 -4.648334363E-03 6.986867855E+04 9.982867942E+01 2.744791861E+00
 -1.126923424E-01 -4.324976108E-03 6.989547290E+04 9.952586232E+01 2.964676144E+00
 -1.006789558E-01 -4.029579579E-03 6.992634056E+04 9.917591911E+01 3.200483599E+00
 -8.971901879E-02 -3.760051391E-03 6.996189397E+04 9.877140680E+01 3.453334386E+00
 -7.972823494E-02 -3.514436822E-03 7.000284223E+04 9.830357216E+01 3.724450686E+00
 -7.062870150E-02 -3.290909516E-03 7.005001102E+04 9.776209728E+01 4.015156943E+00
 -6.234844098E-02 -3.087762467E-03 7.010436509E+04 9.713460015E+01 4.326892970E+00
 -5.482096641E-02 -2.903400112E-03 7.016704661E+04 9.640635771E+01 4.661182405E+00
 -4.798487770E-02 -2.736331381E-03 7.023938101E+04 9.555908239E+01 5.019681313E+00
 -4.178348691E-02 -2.585163624E-03 7.032290578E+04 9.457292451E+01 5.405005019E+00
 -3.616863981E-02 -2.412406187E-03 7.041903984E+04 9.342436740E+01 5.832327158E+00
 -3.110484235E-02 -2.092047178E-03 7.052950034E+04 9.208544921E+01 6.322279465E+00
 -2.652856497E-02 -1.802932376E-03 7.065733769E+04 9.051160326E+01 6.877902170E+00
 -2.239890207E-02 -1.542420956E-03 7.080649183E+04 8.863935011E+01 7.502954535E+00
 -1.867814088E-02 -1.308072103E-03 7.098143681E+04 8.639123698E+01 8.213661656E+00
 -1.533152314E-02 -1.097631973E-03 7.118797836E+04 8.365777723E+01 9.035902918E+00
 -1.232702412E-02 -9.090213376E-04 7.143395689E+04 8.027763549E+01 9.997388147E+00
 -9.635147641E-03 -7.403238568E-04 7.172996684E+04 7.599813171E+01 1.116569164E+01
 -7.228735906E-03 -5.897749136E-04 7.208992738E+04 7.041862613E+01 1.257613700E+01
 -5.082793261E-03 -4.557509465E-04 7.252762991E+04 6.282538110E+01 1.448777156E+01
 -3.174322703E-03 -3.367590037E-04 7.303837640E+04 5.227522226E+01 1.684263980E+01
 -1.482174306E-03 -2.314259044E-04 7.350937357E+04 3.844171677E+01 2.208798869E+01
 1.309555987E-05 -1.384829409E-04 7.370940615E+04 3.074098388E+01 2.612987129E+01
 -4.919121367E+00 4.110405248E-02 6.969572934E+04 1.017587113E+02 8.587179406E-03
 -4.543640879E+00 4.541379137E-02 6.969574411E+04 1.017585223E+02 1.318847942E-02
 -4.195857193E+00 4.941060000E-02 6.969577161E+04 1.017581793E+02 2.379023492E-02
 -3.873781341E+00 5.311686037E-02 6.969579580E+04 1.017578405E+02 3.640288427E-02
 -3.575564389E+00 5.655338679E-02 6.969583112E+04 1.017574019E+02 5.009869743E-02
 -3.298139341E+00 5.308496119E-02 6.969590024E+04 1.017566921E+02 6.474761187E-02
 -3.041074403E+00 4.874144019E-02 6.969600072E+04 1.017556740E+02 8.037709209E-02
 -2.803182169E+00 4.472651608E-02 6.969612084E+04 1.017544377E+02 9.703598852E-02
 -2.583074909E+00 4.101632018E-02 6.969626384E+04 1.017529422E+02 1.148083544E-01
 -2.379463175E+00 3.758867766E-02 6.969643495E+04 1.017511352E+02 1.338051227E-01
 -2.191148956E+00 3.442298974E-02 6.969663741E+04 1.017489789E+02 1.541463801E-01
 -2.017019306E+00 3.150012379E-02 6.969687566E+04 1.017464229E+02 1.759615255E-01
 -1.856040399E+00 2.880231065E-02 6.969715547E+04 1.017434041E+02 1.993926906E-01
 -1.707252005E+00 2.631304880E-02 6.969748344E+04 1.017398501E+02 2.245946179E-01
 -1.569762344E+00 2.401701503E-02 6.969786717E+04 1.017356763E+02 2.517347784E-01
 -1.442743290E+00 2.189998096E-02 6.969831568E+04 1.017307832E+02 2.809942830E-01
 -1.325425915E+00 1.994873534E-02 6.969883950E+04 1.017250541E+02 3.125686762E-01
 -1.217096329E+00 1.815101149E-02 6.969945093E+04 1.017183525E+02 3.466686971E-01
 -1.117091819E+00 1.649541974E-02 6.970016437E+04 1.017105187E+02 3.835211688E-01
 -1.024797251E+00 1.497138448E-02 6.970099664E+04 1.017013660E+02 4.233699511E-01
 -9.396417191E-01 1.356908553E-02 6.970196736E+04 1.016906761E+02 4.664769082E-01
 -8.610954281E-01 1.227940360E-02 6.970309941E+04 1.016781946E+02 5.131228970E-01
 -7.886667952E-01 1.109386961E-02 6.970441948E+04 1.016636244E+02 5.636089194E-01
 -7.218997496E-01 1.000461754E-02 6.970595863E+04 1.016466196E+02 6.182568883E-01
 -6.603712214E-01 9.004340766E-03 6.970775298E+04 1.016267772E+02 6.774111643E-01
 -6.036888049E-01 8.086251538E-03 6.970984456E+04 1.016036284E+02 7.414393783E-01
 -5.514885847E-01 7.244043539E-03 6.971228208E+04 1.015766308E+02 8.107339738E-01
 -5.034331134E-01 6.471857272E-03 6.971512187E+04 1.015451473E+02 8.857133072E-01
 -4.592095303E-01 5.764248179E-03 6.971842922E+04 1.015084444E+02 9.668152632E-01
 -4.185278115E-01 5.116157305E-03 6.972227998E+04 1.014656821E+02 1.054508691E+00
 -3.811191425E-01 4.522884390E-03 6.972676181E+04 1.014158784E+02 1.149310846E+00
 -3.467344046E-01 3.980063205E-03 6.973197523E+04 1.013578984E+02 1.251755050E+00
 -3.151427671E-01 3.483639028E-03 6.973803590E+04 1.012904347E+02 1.362394661E+00
 -2.861303788E-01 3.029848060E-03 6.974507737E+04 1.012119760E+02 1.481832570E+00
 -2.594991509E-01 2.615198655E-03 6.975325314E+04 1.011207817E+02 1.610708865E+00
 -2.350656254E-01 2.236454179E-03 6.976273917E+04 1.010148483E+02 1.749700954E+00
 -2.126599238E-01 1.890617317E-03 6.977373729E+04 1.008918692E+02 1.899531080E+00
 -1.921247687E-01 1.574915673E-03 6.978647877E+04 1.007491882E+02 2.060970808E+00
 -1.733145756E-01 1.286788444E-03 6.980122853E+04 1.005837470E+02 2.234846268E+00
 -1.560946082E-01 1.023874021E-03 6.981829000E+04 1.003920202E+02 2.422045465E+00
 -1.403401933E-01 7.839983149E-04 6.983801092E+04 1.001699396E+02 2.623529369E+00
 -1.259359920E-01 5.651636768E-04 6.986078995E+04 9.991279893E+01 2.840334202E+00
 -1.127753217E-01 3.655382478E-04 6.988708447E+04 9.961515042E+01 3.073592116E+00
 -1.007595269E-01 1.834456382E-04 6.991742087E+04 9.927065620E+01 3.324546067E+00
 -8.979739443E-02 1.735484234E-05 6.995240764E+04 9.887190287E+01 3.594557219E+00
 -7.980461048E-02 -1.341296617E-04 6.999274910E+04 9.841017067E+01 3.885134331E+00
 -7.070325605E-02 -2.722776710E-04 7.003926542E+04 9.787518321E+01 4.197941935E+00
 -6.242133877E-02 -3.982428520E-04 7.009291419E+04 9.725460821E+01 4.534835895E+00
 -5.489235798E-02 -5.130721164E-04 7.015482942E+04 9.653378640E+01 4.897847659E+00
 -4.805490102E-02 -6.177147201E-04 7.022632628E+04 9.569449965E+01 5.289289208E+00
 -4.185226846E-02 -7.130310817E-04 7.030893585E+04 9.471687406E+01 5.712368886E+00
 -3.623494171E-02 -7.677223503E-04 7.040407507E+04 9.357748131E+01 6.181819198E+00
 -3.116263534E-02 -6.694523603E-04 7.051343530E+04 9.224855296E+01 6.717570200E+00
 -2.657866716E-02 -5.810437236E-04 7.064003449E+04 9.068579775E+01 7.324076960E+00
 -2.244206302E-02 -5.016500124E-04 7.078776956E+04 8.882596075E+01 8.007404641E+00
 -1.871504692E-02 -4.304847419E-04 7.096107713E+04 8.659215648E+01 8.785637573E+00
 -1.536280239E-02 -3.668187686E-04 7.116566584E+04 8.387489133E+01 9.686995886E+00
 -1.235325108E-02 -3.099776243E-04 7.140936372E+04 8.051456269E+01 1.074269909E+01
 -9.656847388E-03 -2.593387793E-04 7.170244863E+04 7.625729487E+01 1.202527002E+01
 -7.246388063E-03 -2.143288225E-04 7.205909334E+04 7.070765315E+01 1.357973318E+01
 -5.096835578E-03 -1.744205257E-04 7.249176537E+04 6.314393256E+01 1.567609761E+01
 -3.185154403E-03 -1.391295956E-04 7.299784864E+04 5.263787689E+01 1.826563104E+01
 -1.490159163E-03 -1.080103928E-04 7.345997816E+04 3.887919379E+01 2.368740573E+01
 7.626351982E-06 -8.064715534E-05 7.365236847E+04 3.121968857E+01 2.777459794E+01
 -4.913313371E+00 2.489252871E-01 6.969517477E+04 1.017609118E+02 8.681756546E-03
 -4.537945722E+00 2.350346295E-01 6.969516952E+04 1.017610350E+02 1.330008869E-02
 -4.190266572E+00 2.221735509E-01 6.969516074E+04 1.017613066E+02 2.394479684E-02
 -3.868287547E+00 2.102680331E-01 6.969515606E+04 1.017615542E+02 3.661655702E-02
 -3.570160265E+00 1.992492842E-01 6.969516270E+04 1.017616925E+02 5.038324105E-02
 -3.293110026E+00 1.843142535E-01 6.969519423E+04 1.017616075E+02 6.511454859E-02
 -3.036441603E+00 1.697584617E-01 6.969525003E+04 1.017612623E+02 8.083801856E-02
 -2.798916320E+00 1.562929410E-01 6.969532237E+04 1.017607170E+02 9.760061372E-02
 -2.579148585E+00 1.438386921E-01 6.969541388E+04 1.017599394E+02 1.154887422E-01
 -2.375850939E+00 1.323223141E-01 6.969552880E+04 1.017588874E+02 1.346166657E-01
 -2.187827219E+00 1.216756148E-01 6.969567023E+04 1.017575270E+02 1.551077096E-01
 -2.013966192E+00 1.118352472E-01 6.969584221E+04 1.017558134E+02 1.770948942E-01
 -1.853235626E+00 1.027423715E-01 6.969605000E+04 1.017536897E+02 2.007244741E-01
 -1.704676774E+00 9.434233899E-02 6.969629970E+04 1.017510894E+02 2.261558509E-01
 -1.567399228E+00 8.658439864E-02 6.969659849E+04 1.017479337E+02 2.535617993E-01
 -1.440576142E+00 7.942142312E-02 6.969695486E+04 1.017441293E+02 2.831295125E-01
 -1.323439770E+00 7.280965389E-02 6.969737884E+04 1.017395655E+02 3.150615418E-01
 -1.215277325E+00 6.670846359E-02 6.969788220E+04 1.017341121E+02 3.495767031E-01
 -1.115427116E+00 6.108013496E-02 6.969847881E+04 1.017276157E+02 3.869111229E-01
 -1.023274957E+00 5.588965489E-02 6.969918491E+04 1.017198961E+02 4.273193591E-01
 -9.382508231E-01 5.110452274E-02 6.970001955E+04 1.017107417E+02 4.710755804E-01
 -8.598257360E-01 4.669457203E-02 6.970100503E+04 1.016999047E+02 5.184747984E-01
 -7.875088713E-01 4.263180443E-02 6.970216742E+04 1.016870949E+02 5.698341049E-01
 -7.208448616E-01 3.889023547E-02 6.970353716E+04 1.016719732E+02 6.254940167E-01
 -6.594112896E-01 3.544575104E-02 6.970514977E+04 1.016541434E+02 6.858197740E-01
 -6.028163552E-01 3.227597409E-02 6.970704658E+04 1.016331441E+02 7.512030834E-01
 -5.506967042E-01 2.936014076E-02 6.970927568E+04 1.016084377E+02 8.220633232E-01
 -5.027154099E-01 2.667898547E-02 6.971189291E+04 1.015794008E+02 8.988484608E-01
 -4.585600943E-01 2.421463430E-02 6.971496295E+04 1.015453024E+02 9.820397697E-01
 -4.179411808E-01 2.195050611E-02 6.971856055E+04 1.015052986E+02 1.072140677E+00
 -3.805902696E-01 1.987122103E-02 6.972277257E+04 1.014584229E+02 1.169691842E+00
 -3.462586262E-01 1.796251563E-02 6.972769952E+04 1.014035502E+02 1.275294994E+00
 -3.147157760E-01 1.621116452E-02 6.973345645E+04 1.013393776E+02 1.389570722E+00
 -2.857481975E-01 1.460490776E-02 6.974017570E+04 1.012644012E+02 1.513166962E+00
 -2.591581073E-01 1.313238378E-02 6.974800993E+04 1.011768859E+02 1.646793290E+00