TITLE     = "fluent22.1.0  build-id: 10213"
VARIABLES = "X"
"Y"
"Pressure"
"X Velocity"
"Y Velocity"
DATASETAUXDATA Common.DensityVar="23"
DATASETAUXDATA Common.PressureVar="3"
DATASETAUXDATA Common.TemperatureVar="12"
DATASETAUXDATA Common.TurbulentDynamicViscosityVar="17"
DATASETAUXDATA Common.UVar="5"
DATASETAUXDATA Common.VectorVarsAreVelocity="TRUE"
DATASETAUXDATA Common.ViscosityVar="25"
DATASETAUXDATA Common.VVar="7"
ZONE T="fluid"
 STRANDID=1, SOLUTIONTIME=0.6775
 Nodes=10240, Elements=10080, ZONETYPE=FEQuadrilateral
 DATAPACKING=POINT
 DT=(DOUBLE DOUBLE DOUBLE DOUBLE DOUBLE )
 -4.856290020E+00 -7.872354469E-01 6.969799818E+04 1.017498335E+02 7.066824011E-03
 -4.486956252E+00 -7.103558102E-01 6.969809576E+04 1.017483633E+02 1.172074558E-02
 -4.884823481E+00 -5.813004056E-01 6.969743974E+04 1.017519868E+02 7.711018145E-03
 -4.512969931E+00 -5.224759466E-01 6.969751550E+04 1.017508427E+02 1.239746205E-02
 -4.144865765E+00 -6.391416788E-01 6.969826999E+04 1.017455190E+02 2.248747019E-02
 -4.168545559E+00 -4.679852796E-01 6.969765172E+04 1.017486282E+02 2.322068603E-02
 -3.828062169E+00 -5.731863723E-01 6.969840996E+04 1.017427887E+02 3.534121236E-02
 -3.849580619E+00 -4.175173185E-01 6.969776169E+04 1.017464977E+02 3.612391039E-02
 -3.534726813E+00 -5.121117771E-01 6.969856354E+04 1.017399727E+02 4.928066700E-02
 -3.554244051E+00 -3.707828565E-01 6.969788416E+04 1.017442843E+02 5.012746034E-02
 -3.260652634E+00 -4.698903263E-01 6.969878535E+04 1.017367142E+02 6.409538406E-02
 -3.278609574E+00 -3.399185299E-01 6.969806751E+04 1.017416647E+02 6.504407976E-02
 -3.006491819E+00 -4.335407931E-01 6.969906467E+04 1.017329782E+02 7.980474093E-02
 -3.023053668E+00 -3.136828052E-01 6.969830299E+04 1.017386021E+02 8.089098477E-02
 -2.771287049E+00 -3.998975275E-01 6.969937628E+04 1.017289497E+02 9.651053838E-02
 -2.786557868E+00 -2.893990288E-01 6.969856747E+04 1.017352680E+02 9.775352182E-02
 -2.553666278E+00 -3.687647378E-01 6.969972615E+04 1.017245534E+02 1.143010739E-01
 -2.567742597E+00 -2.669260063E-01 6.969886635E+04 1.017315937E+02 1.157195356E-01
 -2.352354633E+00 -3.399604954E-01 6.970012209E+04 1.017197066E+02 1.332763171E-01
 -2.365325981E+00 -2.461325395E-01 6.969920711E+04 1.017275008E+02 1.348925745E-01
 -2.166167647E+00 -3.133157678E-01 6.970056821E+04 1.017143543E+02 1.535488184E-01
 -2.178117051E+00 -2.268967294E-01 6.969959353E+04 1.017229388E+02 1.553881558E-01
 -1.994004950E+00 -2.886735196E-01 6.970107065E+04 1.017084231E+02 1.752402948E-01
 -2.005009393E+00 -2.091053282E-01 6.970003126E+04 1.017178402E+02 1.773312028E-01
 -1.834844399E+00 -2.658878762E-01 6.970163700E+04 1.017018267E+02 1.984823693E-01
 -1.844975258E+00 -1.926531353E-01 6.970052753E+04 1.017121235E+02 2.008570336E-01
 -1.687736620E+00 -2.448233435E-01 6.970227549E+04 1.016944710E+02 2.234168038E-01
 -1.697060054E+00 -1.774424361E-01 6.970109020E+04 1.017056997E+02 2.261118157E-01
 -1.551799909E+00 -2.253540837E-01 6.970299544E+04 1.016862496E+02 2.501959324E-01
 -1.560377240E+00 -1.633824791E-01 6.970172820E+04 1.016984677E+02 2.532529350E-01
 -1.426215499E+00 -2.073632396E-01 6.970380760E+04 1.016770410E+02 2.789828563E-01
 -1.434103555E+00 -1.503889891E-01 6.970245189E+04 1.016903108E+02 2.824493983E-01
 -1.310223149E+00 -1.907423065E-01 6.970472426E+04 1.016667066E+02 3.099516952E-01
 -1.317474583E+00 -1.383837149E-01 6.970327316E+04 1.016810957E+02 3.138822196E-01
 -1.203117039E+00 -1.753905476E-01 6.970575952E+04 1.016550879E+02 3.432880166E-01
 -1.209780629E+00 -1.272940074E-01 6.970420573E+04 1.016706687E+02 3.477449351E-01
 -1.104241944E+00 -1.612144494E-01 6.970692956E+04 1.016420035E+02 3.791891721E-01
 -1.110362872E+00 -1.170524276E-01 6.970526541E+04 1.016588531E+02 3.842440031E-01
 -1.012989680E+00 -1.481272154E-01 6.970825302E+04 1.016272445E+02 4.178646469E-01
 -1.018609789E+00 -1.075963818E-01 6.970647045E+04 1.016454451E+02 4.235991933E-01
 -9.287957911E-01 -1.360482949E-01 6.970975137E+04 1.016105714E+02 4.595356238E-01
 -9.339538269E-01 -9.886778163E-02 6.970784194E+04 1.016302092E+02 4.660442952E-01
 -8.511364692E-01 -1.249029438E-01 6.971144935E+04 1.015917088E+02 5.044364890E-01
 -8.558683013E-01 -9.081272835E-02 6.970940423E+04 1.016128737E+02 5.118276192E-01
 -7.795256852E-01 -1.146218169E-01 6.971337536E+04 1.015703361E+02 5.528145396E-01
 -7.838645157E-01 -8.338121824E-02 6.971118545E+04 1.015931254E+02 5.612110129E-01
 -7.135125211E-01 -1.051405875E-01 6.971556221E+04 1.015460885E+02 6.049276557E-01
 -7.174890769E-01 -7.652686891E-02 6.971321812E+04 1.015706004E+02 6.144729694E-01
 -6.526786869E-01 -9.639959367E-02 6.971804787E+04 1.015185428E+02 6.610468651E-01
 -6.563213991E-01 -7.020666437E-02 6.971553982E+04 1.015448781E+02 6.719054250E-01
 -5.966362105E-01 -8.834350915E-02 6.972087605E+04 1.014872113E+02 7.214577211E-01
 -5.999713805E-01 -6.438071759E-02 6.971819378E+04 1.015154728E+02 7.338137375E-01
 -5.450252879E-01 -8.092103673E-02 6.972409722E+04 1.014515328E+02 7.864612063E-01
 -5.480772422E-01 -5.901204949E-02 6.972123021E+04 1.014818284E+02 8.005210318E-01
 -4.975122845E-01 -7.408462280E-02 6.972776938E+04 1.014108569E+02 8.563660540E-01
 -5.003035184E-01 -5.406638298E-02 6.972470723E+04 1.014432989E+02 8.723727112E-01
 -4.537878743E-01 -6.779019152E-02 6.973195923E+04 1.013644372E+02 9.314890013E-01
 -4.563391852E-01 -4.951195116E-02 6.972869139E+04 1.013991350E+02 9.497248694E-01
 -4.135653107E-01 -6.199689718E-02 6.973674379E+04 1.013114106E+02 1.012162973E+00
 -4.158959219E-01 -4.531931850E-02 6.973325930E+04 1.013484776E+02 1.032941647E+00
 -3.765788168E-01 -5.666689355E-02 6.974221182E+04 1.012507821E+02 1.098732276E+00
 -3.787064927E-01 -4.146121416E-02 6.973849952E+04 1.012903324E+02 1.122409972E+00
 -3.425820891E-01 -5.176511886E-02 6.974846530E+04 1.011814059E+02 1.191550132E+00
 -3.445232421E-01 -3.791237656E-02 6.974451407E+04 1.012235528E+02 1.218533518E+00
 -3.113469061E-01 -4.725909551E-02 6.975562148E+04 1.011019623E+02 1.290979925E+00
 -3.131166955E-01 -3.464940848E-02 6.975142012E+04 1.011468187E+02 1.321729801E+00
 -2.826618339E-01 -4.311874332E-02 6.976381510E+04 1.010109311E+02 1.397395239E+00
 -2.842742582E-01 -3.165064181E-02 6.975935232E+04 1.010586094E+02 1.432432615E+00
 -2.563310231E-01 -3.931620555E-02 6.977320088E+04 1.009065624E+02 1.511179247E+00
 -2.577990056E-01 -2.889601149E-02 6.976846532E+04 1.009571738E+02 1.551093020E+00
 -2.321730905E-01 -3.582568672E-02 6.978395632E+04 1.007868421E+02 1.632724740E+00
 -2.335085581E-01 -2.636693794E-02 6.977893656E+04 1.008404960E+02 1.678179611E+00
 -2.100200786E-01 -3.262330164E-02 6.979628499E+04 1.006494517E+02 1.762434497E+00
 -2.112340360E-01 -2.404621747E-02 6.979096950E+04 1.007062558E+02 1.814179605E+00
 -1.897164890E-01 -2.968693477E-02 6.981042029E+04 1.004917215E+02 1.900721683E+00
 -1.908190870E-01 -2.191792020E-02 6.980479740E+04 1.005517818E+02 1.959600393E+00
 -1.711183845E-01 -2.699610943E-02 6.982662976E+04 1.003105758E+02 2.048010604E+00
 -1.721189829E-01 -1.996729516E-02 6.982068756E+04 1.003739963E+02 2.114971596E+00
 -1.540925530E-01 -2.453186629E-02 6.984522014E+04 1.001024679E+02 2.204736416E+00
 -1.549997800E-01 -1.818068203E-02 6.983894641E+04 1.001693513E+02 2.280846268E+00
 -1.385157324E-01 -2.227665053E-02 6.986654324E+04 9.986330202E+01 2.371349129E+00
 -1.393375390E-01 -1.654542926E-02 6.985992536E+04 9.993374825E+01 2.457806974E+00
 -1.242738888E-01 -2.021420734E-02 6.989100275E+04 9.958834095E+01 2.548303814E+00
 -1.250175996E-01 -1.504981835E-02 6.988402763E+04 9.966244924E+01 2.646457764E+00
 -1.112615469E-01 -1.832948508E-02 6.991906216E+04 9.927209825E+01 2.736067894E+00
 -1.119339068E-01 -1.368299370E-02 6.991171610E+04 9.934996581E+01 2.847436137E+00
 -9.938116743E-02 -1.660854587E-02 6.995125531E+04 9.890818423E+01 2.935120734E+00
 -9.998838576E-02 -1.243489805E-02 6.994352389E+04 9.898990214E+01 3.061417077E+00
 -8.854256918E-02 -1.503848313E-02 6.998819993E+04 9.848912561E+01 3.145934141E+00
 -8.909035965E-02 -1.129621292E-02 6.998006800E+04 9.857477830E+01 3.289097324E+00
 -7.866239174E-02 -1.360734544E-02 7.003061196E+04 9.800612640E+01 3.368957915E+00
 -7.915601029E-02 -1.025830400E-02 7.002206286E+04 9.809580128E+01 3.531192745E+00
 -6.966359703E-02 -1.230406656E-02 7.007932429E+04 9.744882561E+01 3.604559144E+00
 -7.010787656E-02 -9.313170847E-03 7.007034029E+04 9.754260552E+01 3.788416251E+00
 -6.147500616E-02 -1.111840102E-02 7.013530666E+04 9.680485786E+01 3.852992794E+00
 -6.187438878E-02 -8.453400974E-03 7.012587249E+04 9.690276120E+01 4.061454988E+00
 -5.403086952E-02 -1.004086502E-02 7.019970626E+04 9.605950779E+01 4.114409838E+00
 -5.438943645E-02 -7.672127608E-03 7.018980899E+04 9.616148988E+01 4.350920236E+00
 -4.727046761E-02 -9.062681432E-03 7.027385680E+04 9.519456588E+01 4.388747932E+00
 -4.759196693E-02 -6.962990813E-03 7.026348347E+04 9.530050355E+01 4.657282431E+00
 -4.113774058E-02 -8.175729825E-03 7.035931090E+04 9.418997912E+01 4.677197592E+00
 -4.142561282E-02 -6.320101951E-03 7.034843962E+04 9.429986738E+01 4.982279867E+00
 -3.558916131E-02 -7.324028585E-03 7.045757486E+04 9.302121200E+01 4.996510322E+00
 -3.584521684E-02 -5.693623705E-03 7.044612585E+04 9.313564409E+01 5.342457216E+00
 -3.060414134E-02 -6.340438619E-03 7.057048164E+04 9.165914473E+01 5.369275964E+00
 -3.082513282E-02 -4.930137352E-03 7.055832277E+04 9.177921854E+01 5.759887200E+00
 -2.609906287E-02 -5.451972225E-03 7.070110075E+04 9.005903787E+01 5.793993075E+00
 -2.628836458E-02 -4.240578616E-03 7.068811231E+04 9.018574850E+01 6.234551247E+00
 -2.203365583E-02 -4.650625566E-03 7.085339834E+04 8.815779854E+01 6.268390650E+00
 -2.219435906E-02 -3.618723244E-03 7.083945932E+04 8.829172620E+01 6.766217142E+00
 -1.837079320E-02 -3.929013366E-03 7.103189796E+04 8.587688161E+01 6.803444532E+00
 -1.850572835E-02 -3.058826541E-03 7.101688137E+04 8.601899542E+01 7.367854826E+00
 -1.507625651E-02 -3.280324773E-03 7.124263618E+04 8.310630254E+01 7.420260605E+00
 -1.518801359E-02 -2.555589596E-03 7.122631376E+04 8.325733027E+01 8.062147732E+00
 -1.211851833E-02 -2.698282111E-03 7.149341112E+04 7.968238442E+01 8.133876889E+00
 -1.220946583E-02 -2.104127651E-03 7.147560993E+04 7.984446239E+01 8.868922017E+00
 -9.468540500E-03 -2.177102342E-03 7.179549472E+04 7.535363880E+01 9.005443320E+00
 -9.540842906E-03 -1.699940468E-03 7.177570812E+04 7.552674650E+01 9.850236609E+00
 -7.099586967E-03 -1.711460981E-03 7.216205353E+04 6.971484388E+01 1.002931044E+01
 -7.155220914E-03 -1.338884538E-03 7.214028624E+04 6.990365529E+01 1.101679977E+01
 -4.987050273E-03 -1.296458321E-03 7.260971822E+04 6.205779599E+01 1.147369538E+01
 -5.027819487E-03 -1.017146981E-03 7.258446854E+04 6.225253435E+01 1.262533450E+01
 -3.108290625E-03 -9.275874928E-04 7.312879316E+04 5.146189660E+01 1.321805951E+01
 -3.135839732E-03 -7.312207455E-04 7.310148907E+04 5.166159196E+01 1.460549559E+01
 -1.442486666E-03 -6.007038017E-04 7.361807917E+04 3.734994778E+01 1.815338933E+01
 -1.458313953E-03 -4.778805210E-04 7.358216952E+04 3.763961833E+01 1.969094061E+01
 2.950318352E-05 -3.119902977E-04 7.383502883E+04 2.938707160E+01 2.225579651E+01
 2.403397564E-05 -2.541545121E-04 7.378982164E+04 2.975638970E+01 2.378718977E+01
 -4.904860300E+00 -3.743658139E-01 6.969687285E+04 1.017541958E+02 8.259769026E-03
 -4.531138327E+00 -3.336733083E-01 6.969692816E+04 1.017533696E+02 1.297382833E-02
 -4.184983378E+00 -2.959771966E-01 6.969702839E+04 1.017517770E+02 2.384344563E-02
 -3.864415807E+00 -2.610624093E-01 6.969711004E+04 1.017502456E+02 3.678306132E-02
 -3.567595349E+00 -2.287290151E-01 6.969720324E+04 1.017486312E+02 5.083058746E-02
 -3.290879277E+00 -2.092789324E-01 6.969734859E+04 1.017466518E+02 6.582679352E-02
 -3.034371556E+00 -1.932091784E-01 6.969753959E+04 1.017442690E+02 8.179215469E-02
 -2.796994942E+00 -1.783331602E-01 6.969775646E+04 1.017416315E+02 9.879294348E-02
 -2.577364716E+00 -1.645645626E-01 6.969800389E+04 1.017386795E+02 1.169151910E-01
 -2.374194231E+00 -1.518231801E-01 6.969828876E+04 1.017353417E+02 1.362663876E-01
 -2.186288078E+00 -1.400344907E-01 6.969861467E+04 1.017315725E+02 1.569644720E-01
 -2.012535724E+00 -1.291292594E-01 6.969898684E+04 1.017273104E+02 1.791368567E-01
 -1.851905589E+00 -1.190431704E-01 6.969941203E+04 1.017224797E+02 2.029225858E-01
 -1.703439526E+00 -1.097164830E-01 6.969989771E+04 1.017169970E+02 2.284723444E-01
 -1.566247690E+00 -1.010937130E-01 6.970045240E+04 1.017107663E+02 2.559486845E-01
 -1.439503754E+00 -9.312333524E-02 6.970108603E+04 1.017036767E+02 2.855266256E-01
 -1.322440456E+00 -8.575750769E-02 6.970181007E+04 1.016955998E+02 3.173941777E-01
 -1.214345456E+00 -7.895181382E-02 6.970263780E+04 1.016863873E+02 3.517529075E-01
 -1.114557479E+00 -7.266502346E-02 6.970358461E+04 1.016758678E+02 3.888185541E-01
 -1.022462724E+00 -6.685887015E-02 6.970466830E+04 1.016638423E+02 4.288217002E-01
 -9.374915249E-01 -6.149784384E-02 6.970590954E+04 1.016500807E+02 4.720082890E-01
 -8.591152348E-01 -5.654899803E-02 6.970733223E+04 1.016343161E+02 5.186403103E-01
 -7.868433373E-01 -5.198177025E-02 6.970896408E+04 1.016162396E+02 5.689966102E-01
 -7.202207507E-01 -4.776781488E-02 6.971083721E+04 1.015954929E+02 6.233726751E-01
 -6.588253227E-01 -4.388084749E-02 6.971298882E+04 1.015716619E+02 6.820828693E-01
 -6.022654986E-01 -4.029649988E-02 6.971546180E+04 1.015442629E+02 7.454597488E-01
 -5.501781522E-01 -3.699218491E-02 6.971830575E+04 1.015127394E+02 8.138502963E-01
 -5.022265682E-01 -3.394697060E-02 6.972157827E+04 1.014764532E+02 8.876212675E-01
 -4.580985645E-01 -3.114146261E-02 6.972534600E+04 1.014346597E+02 9.671721164E-01
 -4.175047463E-01 -2.855769464E-02 6.972968539E+04 1.013864995E+02 1.052915130E+00
 -3.801768826E-01 -2.617902612E-02 6.973468437E+04 1.013309836E+02 1.145272001E+00
 -3.458663953E-01 -2.399004661E-02 6.974044459E+04 1.012669676E+02 1.244695369E+00
 -3.143429549E-01 -2.197648658E-02 6.974708307E+04 1.011931321E+02 1.351661550E+00
 -2.853931748E-01 -2.012513393E-02 6.975473420E+04 1.011079578E+02 1.466667226E+00
 -2.588193965E-01 -1.842375609E-02 6.976355229E+04 1.010096952E+02 1.590233229E+00
 -2.344385608E-01 -1.686102722E-02 6.977371442E+04 1.008963299E+02 1.722907024E+00
 -2.120811586E-01 -1.542646025E-02 6.978542366E+04 1.007655432E+02 1.865264269E+00
 -1.915902547E-01 -1.411034356E-02 6.979891275E+04 1.006146653E+02 2.017911394E+00
 -1.728205815E-01 -1.290368204E-02 6.981444839E+04 1.004406210E+02 2.181489095E+00
 -1.556376958E-01 -1.179814226E-02 6.983233621E+04 1.002398652E+02 2.356676068E+00
 -1.399171962E-01 -1.078600176E-02 6.985292666E+04 1.000083031E+02 2.544196356E+00
 -1.255439946E-01 -9.860102128E-03 6.987662186E+04 9.974120216E+01 2.744817074E+00
 -1.124116408E-01 -9.013805750E-03 6.990388321E+04 9.943307975E+01 2.959362332E+00
 -1.004216941E-01 -8.240956128E-03 6.993524209E+04 9.907754611E+01 3.188720512E+00
 -8.948313954E-02 -7.535841509E-03 6.997131345E+04 9.866712957E+01 3.433838912E+00
 -7.951184660E-02 -6.893161670E-03 7.001280942E+04 9.819304380E+01 3.695729569E+00
 -7.043006539E-02 -6.307997657E-03 7.006055933E+04 9.764492983E+01 3.975461502E+00
 -6.216595960E-02 -5.775784271E-03 7.011553244E+04 9.701035719E+01 4.274166549E+00
 -5.465317250E-02 -5.292285007E-03 7.017887570E+04 9.627454398E+01 4.592997621E+00
 -4.783042412E-02 -4.853569161E-03 7.025191965E+04 9.541915787E+01 4.933121418E+00
 -4.164113731E-02 -4.455991020E-03 7.033620389E+04 9.442431807E+01 5.296805969E+00
 -3.603861179E-02 -4.055877012E-03 7.043314984E+04 9.326636940E+01 5.699570654E+00
 -3.099223282E-02 -3.513517522E-03 7.054448439E+04 9.191723018E+01 6.162957331E+00
 -2.643169982E-02 -3.023792599E-03 7.067327545E+04 9.033218548E+01 6.689222094E+00
 -2.231624751E-02 -2.582265409E-03 7.082348370E+04 8.844736128E+01 7.280382385E+00
 -1.860829239E-02 -2.184839116E-03 7.099960897E+04 8.618507150E+01 7.951347771E+00
 -1.527319535E-02 -1.827733491E-03 7.120748633E+04 8.343493377E+01 8.726928559E+00
 -1.227904139E-02 -1.507462926E-03 7.145499400E+04 8.003604770E+01 9.631705586E+00
 -9.596435378E-03 -1.220815766E-03 7.175274903E+04 7.573235678E+01 1.073188243E+01
 -7.198312580E-03 -9.648348275E-04 7.211480277E+04 7.012916824E+01 1.205197963E+01
 -5.059762997E-03 -7.367990144E-04 7.255471891E+04 6.249212123E+01 1.385233206E+01
 -3.157868453E-03 -5.342056788E-04 7.306828927E+04 5.192211501E+01 1.607927491E+01
 -1.471551530E-03 -3.547531356E-04 7.353964759E+04 3.797705106E+01 2.132923130E+01
 1.856476775E-05 -1.963187265E-04 7.373826392E+04 3.014985344E+01 2.544618278E+01
 -4.916318661E+00 -1.667794339E-01 6.969630431E+04 1.017564368E+02 8.632762947E-03
 -4.541385891E+00 -1.442690042E-01 6.969633912E+04 1.017559313E+02 1.336864831E-02
 -4.194109481E+00 -1.234138509E-01 6.969640264E+04 1.017549675E+02 2.428497479E-02
 -3.872503368E+00 -1.040951956E-01 6.969645511E+04 1.017540367E+02 3.727923174E-02
 -3.574721322E+00 -8.620262860E-02 6.969651879E+04 1.017530147E+02 5.139345565E-02
 -3.297407018E+00 -7.820431656E-02 6.969662587E+04 1.017516706E+02 6.648103244E-02
 -3.040395024E+00 -7.233455148E-02 6.969677188E+04 1.017499666E+02 8.256343353E-02
 -2.802551757E+00 -6.689776968E-02 6.969694066E+04 1.017480261E+02 9.969562539E-02
 -2.582489776E+00 -6.186271939E-02 6.969713614E+04 1.017457985E+02 1.179638529E-01
 -2.378919901E+00 -5.720035865E-02 6.969736447E+04 1.017432216E+02 1.374796335E-01
 -2.190644373E+00 -5.288370111E-02 6.969762907E+04 1.017402535E+02 1.583641921E-01
 -2.016550475E+00 -4.888767274E-02 6.969793474E+04 1.017368383E+02 1.807482221E-01
 -1.855604596E+00 -4.518897869E-02 6.969828779E+04 1.017329065E+02 2.047747819E-01
 -1.706846707E+00 -4.176597956E-02 6.969869524E+04 1.017283799E+02 2.305991869E-01
 -1.569385213E+00 -3.859857637E-02 6.969916519E+04 1.017231681E+02 2.583891943E-01
 -1.442392160E+00 -3.566810366E-02 6.969970710E+04 1.017171655E+02 2.883258179E-01
 -1.325098778E+00 -3.295723006E-02 6.970033200E+04 1.017102495E+02 3.206040147E-01
 -1.216791326E+00 -3.044986596E-02 6.970105271E+04 1.017022772E+02 3.554333636E-01
 -1.116807230E+00 -2.813107751E-02 6.970188412E+04 1.016930828E+02 3.930388331E-01
 -1.024531482E+00 -2.598700674E-02 6.970284357E+04 1.016824731E+02 4.336615672E-01
 -9.393932938E-01 -2.400479716E-02 6.970395121E+04 1.016702235E+02 4.775597231E-01
 -8.608629815E-01 -2.217252457E-02 6.970523049E+04 1.016560729E+02 5.250093966E-01
 -7.884490635E-01 -2.047913256E-02 6.970670861E+04 1.016397178E+02 5.763051216E-01
 -7.216955637E-01 -1.891437249E-02 6.970841718E+04 1.016208054E+02 6.317610210E-01
 -6.601794996E-01 -1.746874739E-02 6.971039290E+04 1.015989262E+02 6.917119208E-01
 -6.035085471E-01 -1.613345974E-02 6.971267829E+04 1.015736064E+02 7.565132489E-01
 -5.513188662E-01 -1.490036254E-02 6.971532254E+04 1.015442917E+02 8.265443507E-01
 -5.032730795E-01 -1.376191361E-02 6.971838251E+04 1.015103434E+02 9.022014900E-01
 -4.590583912E-01 -1.271113274E-02 6.972192416E+04 1.014710259E+02 9.839027364E-01
 -4.183848379E-01 -1.174156146E-02 6.972602397E+04 1.014254846E+02 1.072109307E+00
 -3.809836610E-01 -1.084722537E-02 6.973076969E+04 1.013727338E+02 1.167299567E+00
 -3.466057936E-01 -1.002259854E-02 6.973626213E+04 1.013116351E+02 1.269964044E+00
 -3.150204534E-01 -9.262570132E-03 6.974261779E+04 1.012408725E+02 1.380631630E+00
 -2.860138339E-01 -8.562412897E-03 6.974997075E+04 1.011589290E+02 1.499863385E+00
 -2.593878880E-01 -7.917753560E-03 6.975847485E+04 1.010640586E+02 1.628249332E+00
 -2.349591961E-01 -7.324544920E-03 6.976830659E+04 1.009542512E+02 1.766413146E+00
 -2.125579156E-01 -6.779039678E-03 6.977966841E+04 1.008271922E+02 1.915016147E+00
 -1.920268023E-01 -6.277765913E-03 6.979279231E+04 1.006802168E+02 2.074760658E+00
 -1.732203025E-01 -5.817504218E-03 6.980794406E+04 1.005102557E+02 2.246394515E+00
 -1.560037082E-01 -5.395266466E-03 6.982542821E+04 1.003137712E+02 2.430717025E+00
 -1.402523730E-01 -5.008276235E-03 6.984559384E+04 1.000866780E+02 2.628587499E+00
 -1.258509821E-01 -4.653950853E-03 6.986884138E+04 9.982425259E+01 2.840927659E+00
 -1.126928754E-01 -4.329885086E-03 6.989563025E+04 9.952102480E+01 3.068738389E+00
 -1.006794184E-01 -4.033836427E-03 6.992648939E+04 9.917062426E+01 3.313109166E+00
 -8.971941684E-02 -3.763711944E-03 6.996203066E+04 9.876560040E+01 3.575221534E+00
 -7.972857446E-02 -3.517556622E-03 7.000296254E+04 9.829718928E+01 3.856368532E+00
 -7.062898836E-02 -3.293543116E-03 7.005011020E+04 9.775505893E+01 4.157957947E+00
 -6.234868088E-02 -3.089962800E-03 7.010443773E+04 9.712680769E+01 4.481529094E+00
 -5.482116481E-02 -2.905217935E-03 7.016708662E+04 9.639769191E+01 4.828724476E+00
 -4.798503978E-02 -2.737814804E-03 7.023938070E+04 9.554938744E+01 5.201344986E+00
 -4.178361754E-02 -2.586357736E-03 7.032285409E+04 9.456206872E+01 5.602174822E+00
 -3.616874347E-02 -2.413352794E-03 7.041890849E+04 9.341229390E+01 6.046620005E+00
 -3.110492303E-02 -2.092784616E-03 7.052923204E+04 9.207227644E+01 6.555616696E+00
 -2.652862650E-02 -1.803495356E-03 7.065687736E+04 9.049745627E+01 7.132539961E+00
 -2.239894789E-02 -1.542840575E-03 7.080578186E+04 8.862391856E+01 7.781674335E+00
 -1.867817401E-02 -1.308375908E-03 7.098041395E+04 8.637458761E+01 8.519824329E+00
 -1.533154624E-02 -1.097844081E-03 7.118650921E+04 8.363901564E+01 9.374027740E+00
 -1.232703949E-02 -9.091626118E-04 7.143195886E+04 8.025785179E+01 1.037274427E+01
 -9.635157229E-03 -7.404121152E-04 7.172705927E+04 7.597294692E+01 1.158684917E+01
 -7.228741357E-03 -5.898251638E-04 7.208618236E+04 7.039506612E+01 1.305240893E+01
 -5.082795934E-03 -4.557756307E-04 7.252137298E+04 6.278087508E+01 1.504226579E+01
 -3.174323701E-03 -3.367682324E-04 7.303066590E+04 5.224507702E+01 1.751414443E+01
 -1.482174493E-03 -2.314276392E-04 7.349281896E+04 3.837527347E+01 2.294334673E+01
 1.309555987E-05 -1.384829409E-04 7.368312863E+04 3.059524543E+01 2.710109374E+01
 -4.919121367E+00 4.110405248E-02 6.969573314E+04 1.017586993E+02 8.884072208E-03
 -4.543641342E+00 4.540946113E-02 6.969574742E+04 1.017585136E+02 1.364484160E-02
 -4.195858065E+00 4.940243778E-02 6.969577394E+04 1.017581784E+02 2.461438927E-02
 -3.873782573E+00 5.310532537E-02 6.969579704E+04 1.017578485E+02 3.766543370E-02
 -3.575565936E+00 5.653890218E-02 6.969583131E+04 1.017574196E+02 5.183831623E-02
 -3.298141163E+00 5.306790255E-02 6.969589989E+04 1.017567168E+02 6.699849285E-02
 -3.041076462E+00 4.872216562E-02 6.969600028E+04 1.017557018E+02 8.317409560E-02
 -2.803184429E+00 4.470535772E-02 6.969612029E+04 1.017544684E+02 1.004152025E-01
 -2.583077337E+00 4.099358307E-02 6.969626319E+04 1.017529755E+02 1.188084202E-01
 -2.379465741E+00 3.756464178E-02 6.969643423E+04 1.017511704E+02 1.384681905E-01
 -2.191151634E+00 3.439791196E-02 6.969663664E+04 1.017490151E+02 1.595184205E-01
 -2.017022070E+00 3.147423959E-02 6.969687485E+04 1.017464596E+02 1.820926500E-01
 -1.856043225E+00 2.877583578E-02 6.969715464E+04 1.017434404E+02 2.063375967E-01
 -1.707254873E+00 2.628618080E-02 6.969748258E+04 1.017398852E+02 2.324130288E-01
 -1.569765234E+00 2.398993457E-02 6.969786631E+04 1.017357092E+02 2.604918824E-01
 -1.442746186E+00 2.187285311E-02 6.969831481E+04 1.017308129E+02 2.907611989E-01
 -1.325428799E+00 1.992171068E-02 6.969883861E+04 1.017250794E+02 3.234229429E-01
 -1.217099186E+00 1.812422710E-02 6.969945003E+04 1.017183721E+02 3.586947856E-01
 -1.117094637E+00 1.646900009E-02 6.970016345E+04 1.017105310E+02 3.968110196E-01
 -1.024800018E+00 1.494544221E-02 6.970099567E+04 1.017013694E+02 4.380235465E-01
 -9.396444240E-01 1.354372212E-02 6.970196630E+04 1.016906687E+02 4.826028878E-01
 -8.610980611E-01 1.225470996E-02 6.970309824E+04 1.016781742E+02 5.308391868E-01
 -7.886693478E-01 1.106992653E-02 6.970441813E+04 1.016635885E+02 5.830433300E-01
 -7.219022141E-01 9.981496172E-03 6.970595703E+04 1.016465654E+02 6.395479713E-01
 -6.603735913E-01 8.982102919E-03 6.970775104E+04 1.016267017E+02 7.007088741E-01
 -6.036910746E-01 8.064949998E-03 6.970984209E+04 1.016035283E+02 7.669058710E-01
 -5.514907496E-01 7.223722303E-03 6.971227891E+04 1.015765011E+02 8.385437056E-01
 -5.034351698E-01 6.452551767E-03 6.971511793E+04 1.015449863E+02 9.160565237E-01
 -4.592114753E-01 5.745985451E-03 6.971842422E+04 1.015082493E+02 9.998975692E-01
 -4.185296432E-01 5.098956210E-03 6.972227341E+04 1.014654413E+02 1.090547882E+00
 -3.811208597E-01 4.506755782E-03 6.972675319E+04 1.014155844E+02 1.188540101E+00
 -3.467360071E-01 3.965010156E-03 6.973196411E+04 1.013575472E+02 1.294430669E+00
 -3.151442554E-01 3.469657067E-03 6.973802166E+04 1.012900190E+02 1.408793913E+00
 -2.861317543E-01 3.016925466E-03 6.974505920E+04 1.012114877E+02 1.532249022E+00
 -2.595004155E-01 2.603316801E-03 6.975323004E+04 1.011202115E+02 1.665458458E+00
 -2.350667820E-01 2.225587933E-03 6.976270996E+04 1.010141855E+02 1.809124616E+00
 -2.126609757E-01 1.880735517E-03 6.977370055E+04 1.008911016E+02 1.963995482E+00
 -1.921257198E-01 1.565981659E-03 6.978643281E+04 1.007483023E+02 2.130870550E+00
 -1.733154304E-01 1.278760668E-03 6.980117135E+04 1.005827273E+02 2.310606632E+00
 -1.560953715E-01 1.016706705E-03 6.981821924E+04 1.003908485E+02 2.504125341E+00
 -1.403408704E-01 7.776421674E-04 6.983792380E+04 1.001685952E+02 2.712424729E+00
 -1.259365884E-01 5.595666448E-04 6.986068324E+04 9.991125748E+01 2.936583035E+00
 -1.127758432E-01 3.606462931E-04 6.988695443E+04 9.961338308E+01 3.177779539E+00
 -1.007599794E-01 1.792035194E-04 6.991726314E+04 9.926862819E+01 3.437310777E+00
 -8.979778381E-02 1.370688512E-05 6.995221709E+04 9.886957332E+01 3.716599722E+00
 -7.980494261E-02 -1.372388247E-04 6.999251977E+04 9.840748992E+01 4.017226426E+00
 -7.070353668E-02 -2.749024088E-04 7.003899053E+04 9.787209024E+01 4.340939356E+00
 -6.242157348E-02 -4.004359081E-04 7.009258589E+04 9.725102556E+01 4.689694536E+00
 -5.489255213E-02 -5.148840580E-04 7.015443870E+04 9.652962022E+01 5.065643621E+00
 -4.805505968E-02 -6.191934724E-04 7.022586198E+04 9.568962461E+01 5.471244004E+00
 -4.185239638E-02 -7.142215545E-04 7.030838309E+04 9.471118646E+01 5.909876626E+00
 -3.623504327E-02 -7.686662087E-04 7.040340243E+04 9.357095135E+01 6.396489037E+00
 -3.116271446E-02 -6.701878603E-04 7.051258358E+04 9.224130424E+01 6.951324176E+00
 -2.657872757E-02 -5.816053866E-04 7.063894523E+04 9.067798181E+01 7.579174153E+00
 -2.244210804E-02 -5.020687787E-04 7.078637737E+04 8.881731185E+01 8.286659085E+00
 -1.871507952E-02 -4.307880284E-04 7.095931230E+04 8.658282337E+01 9.092375267E+00
 -1.536282515E-02 -3.670305892E-04 7.116338124E+04 8.386400450E+01 1.002583181E+01
 -1.235326624E-02 -3.101187615E-04 7.140647339E+04 8.050341534E+01 1.111869421E+01
 -9.656856860E-03 -2.594269909E-04 7.169853093E+04 7.624145576E+01 1.244748119E+01
 -7.246393458E-03 -2.143790729E-04 7.205422857E+04 7.069459501E+01 1.405682391E+01
 -5.096838229E-03 -1.744452276E-04 7.248411925E+04 6.311189991E+01 1.623269266E+01
 -3.185155395E-03 -1.391388418E-04 7.298850415E+04 5.262405211E+01 1.893767843E+01
 -1.490159350E-03 -1.080121343E-04 7.344156336E+04 3.882993610E+01 2.454550338E+01
 7.626351982E-06 -8.064715534E-05 7.362400561E+04 3.108917136E+01 2.875447433E+01
 -4.913313371E+00 2.489252871E-01 6.969515951E+04 1.017609753E+02 8.976023924E-03
 -4.537946182E+00 2.350303019E-01 6.969515311E+04 1.017611125E+02 1.375363489E-02
 -4.190267439E+00 2.221653924E-01 6.969514215E+04 1.017614127E+02 2.476587030E-02
 -3.868288771E+00 2.102565019E-01 6.969513544E+04 1.017616892E+02 3.787606307E-02
 -3.570161802E+00 1.992348031E-01 6.969514010E+04 1.017618570E+02 5.212003907E-02
 -3.293111836E+00 1.842971998E-01 6.969516986E+04 1.017618005E+02 6.736284111E-02
 -3.036443647E+00 1.697391939E-01 6.969522411E+04 1.017614814E+02 8.363263222E-02
 -2.798918564E+00 1.562717909E-01 6.969529479E+04 1.017609627E+02 1.009775518E-01
 -2.579150996E+00 1.438159647E-01 6.969538450E+04 1.017602122E+02 1.194865847E-01
 -2.375853487E+00 1.322982893E-01 6.969549751E+04 1.017591877E+02 1.392775298E-01
 -2.187829877E+00 1.216505493E-01 6.969563690E+04 1.017578554E+02 1.604775496E-01
 -2.013968934E+00 1.118093765E-01 6.969580667E+04 1.017561707E+02 1.832238209E-01
 -1.853238431E+00 1.027159112E-01 6.969601206E+04 1.017540768E+02 2.076671974E-01
 -1.704679619E+00 9.431548654E-02 6.969625918E+04 1.017515073E+02 2.339721170E-01
 -1.567402095E+00 8.655733466E-02 6.969655517E+04 1.017483837E+02 2.623168284E-01
 -1.440579012E+00 7.939431264E-02 6.969690850E+04 1.017446124E+02 2.928944638E-01
 -1.323442628E+00 7.278264741E-02 6.969732919E+04 1.017400831E+02 3.259140038E-01
 -1.215280156E+00 6.668169813E-02 6.969782899E+04 1.017346655E+02 3.616012057E-01
 -1.115429908E+00 6.105373494E-02 6.969842173E+04 1.017282062E+02 4.001996782E-01
 -1.023277697E+00 5.586373287E-02 6.969912365E+04 1.017205251E+02 4.419720348E-01
 -9.382535005E-01 5.107918016E-02 6.969995375E+04 1.017114105E+02 4.872010980E-01
 -8.598283412E-01 4.666989970E-02 6.970093431E+04 1.017006147E+02 5.361911638E-01
 -7.875113958E-01 4.260788310E-02 6.970209137E+04 1.016878474E+02 5.892692955E-01
 -7.208472980E-01 3.886713620E-02 6.970345533E+04 1.016727692E+02 6.467866737E-01
 -6.594136314E-01 3.542353558E-02 6.970506165E+04 1.016549841E+02 7.091201422E-01
 -6.028185969E-01 3.225469512E-02 6.970695161E+04 1.016340304E+02 7.766733622E-01
 -5.506988413E-01 2.933984219E-02 6.970917325E+04 1.016093702E+02 8.498783300E-01
 -5.027174389E-01 2.665970264E-02 6.971178238E+04 1.015803786E+02 9.291973699E-01
 -4.585620123E-01 2.419639414E-02 6.971484362E+04 1.015463293E+02 1.015127933E+00
 -4.179429860E-01 2.193332738E-02 6.971843158E+04 1.015063760E+02 1.108189902E+00
 -3.805919611E-01 1.985511448E-02 6.972263289E+04 1.014595422E+02 1.208938030E+00
 -3.462602038E-01 1.794748422E-02 6.972754795E+04 1.014047097E+02 1.317987216E+00
 -3.147172404E-01 1.619720366E-02 6.973329186E+04 1.013405790E+02 1.435984394E+00
 -2.857495501E-01 1.459200562E-02 6.973999681E+04 1.012656419E+02 1.563602249E+00
 -2.591593502E-01 1.312052163E-02 6.974781512E+04 1.011781632E+02 1.701565974E+00