TITLE     = "fluent22.1.0  build-id: 10213"
VARIABLES = "X"
"Y"
"Pressure"
"X Velocity"
"Y Velocity"
DATASETAUXDATA Common.DensityVar="23"
DATASETAUXDATA Common.PressureVar="3"
DATASETAUXDATA Common.TemperatureVar="12"
DATASETAUXDATA Common.TurbulentDynamicViscosityVar="17"
DATASETAUXDATA Common.UVar="5"
DATASETAUXDATA Common.VectorVarsAreVelocity="TRUE"
DATASETAUXDATA Common.ViscosityVar="25"
DATASETAUXDATA Common.VVar="7"
ZONE T="fluid"
 STRANDID=1, SOLUTIONTIME=0.71
 Nodes=10240, Elements=10080, ZONETYPE=FEQuadrilateral
 DATAPACKING=POINT
 DT=(DOUBLE DOUBLE DOUBLE DOUBLE DOUBLE )
 -4.856290020E+00 -7.872354469E-01 6.969817259E+04 1.017491585E+02 7.622901116E-03
 -4.486957357E+00 -7.103653657E-01 6.969827479E+04 1.017476024E+02 1.261939618E-02
 -4.884823481E+00 -5.813004056E-01 6.969757341E+04 1.017514694E+02 8.302037281E-03
 -4.512971022E+00 -5.224854340E-01 6.969765233E+04 1.017502632E+02 1.333157866E-02
 -4.144867845E+00 -6.391596718E-01 6.969845703E+04 1.017445918E+02 2.417826725E-02
 -4.168547612E+00 -4.680031507E-01 6.969779399E+04 1.017479283E+02 2.494718171E-02
 -3.828065104E+00 -5.732117784E-01 6.969860280E+04 1.017417047E+02 3.797800066E-02
 -3.849583519E+00 -4.175425589E-01 6.969790772E+04 1.017456849E+02 3.879574735E-02
 -3.534730494E+00 -5.121436535E-01 6.969876248E+04 1.017387353E+02 5.294568210E-02
 -3.554247688E+00 -3.708145333E-01 6.969803418E+04 1.017433622E+02 5.382737622E-02
 -3.260656966E+00 -4.699278380E-01 6.969899406E+04 1.017353048E+02 6.885686734E-02
 -3.278613855E+00 -3.399558194E-01 6.969822460E+04 1.017406174E+02 6.984223945E-02
 -3.006496712E+00 -4.335831569E-01 6.969928607E+04 1.017313759E+02 8.573194133E-02
 -3.023058505E+00 -3.137249275E-01 6.969846966E+04 1.017374113E+02 8.685836911E-02
 -2.771292420E+00 -3.999440184E-01 6.969961127E+04 1.017271487E+02 1.036791434E-01
 -2.786563178E+00 -2.894452612E-01 6.969874438E+04 1.017339297E+02 1.049663259E-01
 -2.553672051E+00 -3.688146904E-01 6.969997584E+04 1.017225452E+02 1.227930139E-01
 -2.567748304E+00 -2.669756851E-01 6.969905431E+04 1.017301013E+02 1.242600368E-01
 -2.352360739E+00 -3.400132989E-01 6.970038790E+04 1.017174791E+02 1.431808517E-01
 -2.365332016E+00 -2.461850556E-01 6.969940721E+04 1.017258447E+02 1.448504819E-01
 -2.166174020E+00 -3.133708619E-01 6.970085157E+04 1.017118949E+02 1.649635311E-01
 -2.178123349E+00 -2.269515241E-01 6.969980684E+04 1.017211091E+02 1.668615219E-01
 -1.994011531E+00 -2.887303908E-01 6.970137308E+04 1.017057171E+02 1.882718958E-01
 -2.005015897E+00 -2.091618892E-01 6.970025894E+04 1.017158255E+02 1.904272058E-01
 -1.834851136E+00 -2.659460537E-01 6.970196019E+04 1.016988577E+02 2.132475659E-01
 -1.844981913E+00 -1.927109932E-01 6.970077084E+04 1.017099110E+02 2.156928496E-01
 -1.687743462E+00 -2.448823963E-01 6.970262124E+04 1.016912206E+02 2.400432011E-01
 -1.697066813E+00 -1.775011612E-01 6.970135049E+04 1.017032751E+02 2.428155291E-01
 -1.551806811E+00 -2.254136174E-01 6.970336570E+04 1.016826977E+02 2.688230030E-01
 -1.560384057E+00 -1.634416781E-01 6.970200693E+04 1.016958151E+02 2.719645057E-01
 -1.426222420E+00 -2.074228936E-01 6.970420445E+04 1.016731654E+02 2.997629371E-01
 -1.434110388E+00 -1.504483027E-01 6.970275060E+04 1.016874131E+02 3.033216602E-01
 -1.310230052E+00 -1.908017517E-01 6.970514990E+04 1.016624829E+02 3.330510801E-01
 -1.317481395E+00 -1.384428150E-01 6.970359352E+04 1.016779338E+02 3.370819561E-01
 -1.203123888E+00 -1.754494839E-01 6.970621630E+04 1.016504899E+02 3.688880051E-01
 -1.209787386E+00 -1.273525951E-01 6.970454950E+04 1.016672221E+02 3.734539539E-01
 -1.104248709E+00 -1.612726040E-01 6.970741997E+04 1.016370026E+02 4.074872180E-01
 -1.110369543E+00 -1.171102314E-01 6.970563444E+04 1.016550996E+02 4.126603880E-01
 -1.012996331E+00 -1.481843411E-01 6.970877970E+04 1.016218101E+02 4.490756232E-01
 -1.018616346E+00 -1.076531557E-01 6.970686671E+04 1.016413605E+02 4.549385891E-01
 -9.288023033E-01 -1.361041685E-01 6.971031707E+04 1.016046703E+02 4.938937410E-01
 -9.339602443E-01 -9.892330384E-02 6.970826747E+04 1.016257677E+02 5.005409852E-01
 -8.511428190E-01 -1.249573649E-01 6.971205693E+04 1.015853049E+02 5.421953994E-01
 -8.558745560E-01 -9.086679972E-02 6.970986118E+04 1.016080475E+02 5.497358090E-01
 -7.795318517E-01 -1.146746068E-01 6.971402794E+04 1.015633941E+02 5.942494198E-01
 -7.838705872E-01 -8.343366147E-02 6.971167606E+04 1.015878838E+02 6.028075925E-01
 -7.135184859E-01 -1.051915884E-01 6.971626296E+04 1.015385657E+02 6.503390627E-01
 -7.174949470E-01 -7.657752757E-02 6.971374472E+04 1.015649123E+02 6.600565836E-01
 -6.526844338E-01 -9.644866781E-02 6.971879993E+04 1.015103955E+02 7.107594240E-01
 -6.563270519E-01 -7.025540218E-02 6.971610476E+04 1.015387101E+02 7.218012176E-01
 -5.966417253E-01 -8.839053835E-02 6.972168270E+04 1.014783946E+02 7.758199722E-01
 -5.999768023E-01 -6.442741777E-02 6.971879959E+04 1.015087901E+02 7.883748038E-01
 -5.450305587E-01 -8.096592180E-02 6.972496179E+04 1.014419972E+02 8.458482208E-01
 -5.480824214E-01 -5.905661429E-02 6.972187925E+04 1.014745888E+02 8.601266013E-01
 -4.975173013E-01 -7.412728318E-02 6.972869537E+04 1.014005520E+02 9.211884574E-01
 -5.003084455E-01 -5.410873324E-02 6.972540167E+04 1.014354601E+02 9.374268636E-01
 -4.537926293E-01 -6.783056488E-02 6.973295028E+04 1.013533071E+02 1.002192466E+00
 -4.563438527E-01 -4.955202591E-02 6.972943384E+04 1.013906559E+02 1.020669570E+00
 -4.135697981E-01 -6.203493913E-02 6.973780342E+04 1.012993977E+02 1.089222573E+00
 -4.159003245E-01 -4.535707461E-02 6.973405248E+04 1.013393091E+02 1.110259982E+00
 -3.765830327E-01 -5.670257724E-02 6.974334345E+04 1.012378260E+02 1.182659844E+00
 -3.787106268E-01 -4.149662596E-02 6.973934577E+04 1.012804261E+02 1.206614464E+00
 -3.425860316E-01 -5.179843464E-02 6.974967239E+04 1.011674422E+02 1.282898740E+00
 -3.445271062E-01 -3.794543544E-02 6.974541554E+04 1.012128573E+02 1.310175643E+00
 -3.113505753E-01 -4.729005043E-02 6.975690741E+04 1.010869227E+02 1.390344660E+00
 -3.131202899E-01 -3.468012237E-02 6.975237899E+04 1.011352783E+02 1.421405486E+00
 -2.826652316E-01 -4.314736059E-02 6.976518309E+04 1.009947441E+02 1.505415812E+00
 -2.842775852E-01 -3.167903464E-02 6.976037060E+04 1.010461650E+02 1.540782783E+00
 -2.563341531E-01 -3.934252385E-02 6.977465396E+04 1.008891522E+02 1.628543710E+00
 -2.578020691E-01 -2.892212245E-02 6.976954474E+04 1.009437628E+02 1.668806464E+00
 -2.321759582E-01 -3.584975937E-02 6.978549731E+04 1.007681280E+02 1.760173075E+00
 -2.335113637E-01 -2.639082063E-02 6.978007857E+04 1.008260515E+02 1.805997162E+00
 -2.100226910E-01 -3.264519562E-02 6.979791648E+04 1.006293476E+02 1.900762569E+00
 -2.112365910E-01 -2.406793893E-02 6.979217527E+04 1.006907061E+02 1.952898238E+00
 -1.897188548E-01 -2.970672955E-02 6.981214457E+04 1.004701348E+02 2.050785921E+00
 -1.908213999E-01 -2.193755976E-02 6.980606772E+04 1.005350491E+02 2.110077854E+00
 -1.711205135E-01 -2.701389568E-02 6.982844883E+04 1.002874065E+02 2.210733321E+00
 -1.721210638E-01 -1.998494310E-02 6.982202282E+04 1.003559962E+02 2.278131790E+00
 -1.540944565E-01 -2.454774441E-02 6.984713562E+04 1.000776068E+02 2.381112796E+00
 -1.550016402E-01 -1.819643814E-02 6.984034651E+04 1.001499909E+02 2.457686165E+00
 -1.385174225E-01 -2.229072907E-02 6.986855634E+04 9.983662965E+01 2.562452129E+00
 -1.393391905E-01 -1.655940132E-02 6.986138964E+04 9.991292645E+01 2.649401479E+00
 -1.242753787E-01 -2.022660128E-02 6.989311436E+04 9.955972381E+01 2.755299230E+00
 -1.250190552E-01 -1.506212038E-02 6.988555487E+04 9.964005125E+01 2.853975782E+00
 -1.112628503E-01 -1.834031409E-02 6.992127340E+04 9.924137872E+01 2.960223417E+00
 -1.119351803E-01 -1.369374432E-02 6.991330509E+04 9.932585428E+01 3.072149002E+00
 -9.938229858E-02 -1.661793256E-02 6.995356760E+04 9.887517868E+01 3.177811825E+00
 -9.998949090E-02 -1.244421866E-02 6.994517347E+04 9.896391760E+01 3.304704670E+00
 -8.854354244E-02 -1.504655123E-02 6.999061407E+04 9.845362893E+01 3.408666422E+00
 -8.909131065E-02 -1.130422604E-02 6.998177603E+04 9.854674269E+01 3.552471541E+00
 -7.866322158E-02 -1.361421817E-02 7.003312831E+04 9.796790134E+01 3.653389190E+00
 -7.915682130E-02 -1.026513156E-02 7.002382620E+04 9.806550864E+01 3.816319087E+00
 -6.966429773E-02 -1.230986497E-02 7.008194396E+04 9.740758717E+01 3.912525329E+00
 -7.010856153E-02 -9.318932665E-03 7.007215582E+04 9.750980757E+01 4.097140352E+00
 -6.147559164E-02 -1.112324261E-02 7.013803162E+04 9.676025523E+01 4.186536763E+00
 -6.187496131E-02 -8.458213326E-03 7.012773720E+04 9.686715030E+01 4.395833868E+00
 -5.403135321E-02 -1.004486242E-02 7.020253978E+04 9.601112031E+01 4.475826467E+00
 -5.438990964E-02 -7.676101998E-03 7.019172032E+04 9.612269512E+01 4.713265235E+00
 -4.727086228E-02 -9.065941394E-03 7.027680168E+04 9.514186014E+01 4.780630079E+00
 -4.759235319E-02 -6.966232920E-03 7.026543740E+04 9.525804926E+01 5.050206413E+00
 -4.113805821E-02 -8.178352307E-03 7.036236520E+04 9.413246255E+01 5.102512166E+00
 -4.142592384E-02 -6.322710787E-03 7.035042601E+04 9.425333639E+01 5.408778525E+00
 -3.558941289E-02 -7.326105802E-03 7.046069422E+04 9.295860053E+01 5.458825642E+00
 -3.584546335E-02 -5.695690814E-03 7.044809202E+04 9.308479628E+01 5.806078524E+00
 -3.060433654E-02 -6.342054166E-03 7.057354539E+04 9.159165673E+01 5.872720314E+00
 -3.082532431E-02 -4.931746136E-03 7.056014606E+04 9.172427365E+01 6.264801136E+00
 -2.609921125E-02 -5.453203494E-03 7.070400933E+04 8.998674427E+01 6.343542781E+00
 -2.628851032E-02 -4.241805579E-03 7.068968422E+04 9.012685022E+01 6.785729078E+00
 -2.203376591E-02 -4.651541716E-03 7.085606566E+04 8.807966710E+01 6.869991818E+00
 -2.219446732E-02 -3.619636831E-03 7.084067792E+04 8.822796149E+01 7.369619757E+00
 -1.837087249E-02 -3.929675493E-03 7.103423020E+04 8.579254046E+01 7.464724936E+00
 -1.850580645E-02 -3.059487284E-03 7.101763350E+04 8.595012721E+01 8.031056397E+00
 -1.507631157E-02 -3.280786217E-03 7.124440100E+04 8.301347242E+01 8.150276218E+00
 -1.518806790E-02 -2.556050407E-03 7.122634470E+04 8.318129027E+01 8.794382759E+00
 -1.211855479E-02 -2.698588882E-03 7.149448813E+04 7.958206455E+01 8.946057672E+00
 -1.220950185E-02 -2.104434224E-03 7.147475954E+04 7.976271655E+01 9.682845390E+00
 -9.468563137E-03 -2.177293614E-03 7.179519240E+04 7.523706051E+01 9.915135254E+00
 -9.540865308E-03 -1.700131761E-03 7.177324718E+04 7.543063343E+01 1.076267169E+01
 -7.099599769E-03 -1.711569651E-03 7.216044117E+04 6.959296585E+01 1.106681637E+01
 -7.155233606E-03 -1.338993305E-03 7.213621641E+04 6.980553589E+01 1.205296964E+01
 -4.987056515E-03 -1.296511571E-03 7.260347403E+04 6.188652030E+01 1.268130118E+01
 -5.027825687E-03 -1.017200325E-03 7.257530506E+04 6.210878212E+01 1.383529723E+01
 -3.108292938E-03 -9.276073366E-04 7.312049592E+04 5.131455577E+01 1.470104806E+01
 -3.135842035E-03 -7.312406448E-04 7.308961748E+04 5.154812394E+01 1.608371660E+01
 -1.442487096E-03 -6.007075149E-04 7.359075865E+04 3.715945660E+01 1.999322706E+01
 -1.458314382E-03 -4.778842496E-04 7.355098152E+04 3.747801476E+01 2.152986052E+01
 2.950318352E-05 -3.119902977E-04 7.378633917E+04 2.907103782E+01 2.427137525E+01
 2.403397564E-05 -2.541545121E-04 7.373734470E+04 2.945920823E+01 2.582238886E+01
 -4.904860300E+00 -3.743658139E-01 6.969696534E+04 1.017538393E+02 8.878584408E-03
 -4.531139405E+00 -3.336827427E-01 6.969702245E+04 1.017529738E+02 1.393594770E-02
 -4.184985408E+00 -2.959949730E-01 6.969712571E+04 1.017513060E+02 2.559750369E-02
 -3.864418675E+00 -2.610875222E-01 6.969720923E+04 1.017497051E+02 3.948094640E-02
 -3.567598948E+00 -2.287605393E-01 6.969730443E+04 1.017480248E+02 5.455505448E-02
 -3.290883514E+00 -2.093160514E-01 6.969745422E+04 1.017459669E+02 7.064972580E-02
 -3.034376343E+00 -1.932511149E-01 6.969765168E+04 1.017434901E+02 8.778647753E-02
 -2.797000197E+00 -1.783791930E-01 6.969787543E+04 1.017407559E+02 1.060354181E-01
 -2.577370364E+00 -1.646140296E-01 6.969813025E+04 1.017377025E+02 1.254883890E-01
 -2.374200203E+00 -1.518754735E-01 6.969842329E+04 1.017342562E+02 1.462604275E-01
 -2.186294311E+00 -1.400890528E-01 6.969875809E+04 1.017303713E+02 1.684778001E-01
 -2.012542159E+00 -1.291855793E-01 6.969913991E+04 1.017259852E+02 1.922769941E-01
 -1.851912172E+00 -1.191007796E-01 6.969957559E+04 1.017210215E+02 2.178070549E-01
 -1.703446209E+00 -1.097749526E-01 6.970007268E+04 1.017153954E+02 2.452295954E-01
 -1.566254429E+00 -1.011526508E-01 6.970063975E+04 1.017090102E+02 2.747190512E-01
 -1.439510508E+00 -9.318238280E-02 6.970128678E+04 1.017017537E+02 3.064633350E-01
 -1.322447187E+00 -8.581633789E-02 6.970202533E+04 1.016934964E+02 3.406644193E-01
 -1.214352130E+00 -7.901012875E-02 6.970286873E+04 1.016840887E+02 3.775389475E-01
 -1.114564066E+00 -7.272255253E-02 6.970383244E+04 1.016733580E+02 4.173189185E-01
 -1.022469196E+00 -6.691536834E-02 6.970493432E+04 1.016611040E+02 4.602523883E-01
 -9.374978562E-01 -6.155309025E-02 6.970619508E+04 1.016470951E+02 5.066042139E-01
 -8.591214030E-01 -5.660279464E-02 6.970763870E+04 1.016310630E+02 5.566565572E-01
 -7.868493222E-01 -5.203394082E-02 6.970929293E+04 1.016126970E+02 6.107098166E-01
 -7.202265344E-01 -4.781820407E-02 6.971118990E+04 1.015916374E+02 6.690833161E-01
 -6.588308896E-01 -4.392932014E-02 6.971336679E+04 1.015674678E+02 7.321151789E-01
 -6.022708354E-01 -4.034294035E-02 6.971586668E+04 1.015397065E+02 8.001653232E-01
 -5.501832477E-01 -3.703649657E-02 6.971873915E+04 1.015077927E+02 8.736125824E-01
 -5.022314132E-01 -3.398907537E-02 6.972204145E+04 1.014710788E+02 9.528530203E-01
 -4.581031518E-01 -3.118130060E-02 6.972584010E+04 1.014288265E+02 1.038306603E+00
 -4.175090710E-01 -2.859522373E-02 6.973021194E+04 1.013801750E+02 1.130428389E+00
 -3.801809415E-01 -2.621422157E-02 6.973524493E+04 1.013241272E+02 1.229687908E+00
 -3.458701871E-01 -2.402290066E-02 6.974104018E+04 1.012595401E+02 1.336566795E+00
 -3.143464804E-01 -2.200700788E-02 6.974771450E+04 1.011850917E+02 1.451582625E+00
 -2.853964364E-01 -2.015334699E-02 6.975540218E+04 1.010992584E+02 1.575280122E+00
 -2.588223983E-01 -1.844970052E-02 6.976425724E+04 1.010002878E+02 1.708228566E+00
 -2.344413088E-01 -1.688475691E-02 6.977445639E+04 1.008861619E+02 1.851027091E+00
 -2.120836601E-01 -1.544804233E-02 6.978620233E+04 1.007545573E+02 2.004307763E+00
 -1.915925185E-01 -1.412985729E-02 6.979972734E+04 1.006027994E+02 2.168738196E+00
 -1.728226175E-01 -1.292121743E-02 6.981529760E+04 1.004278069E+02 2.345025735E+00
 -1.556395153E-01 -1.181379871E-02 6.983321816E+04 1.002260271E+02 2.533922686E+00
 -1.399188111E-01 -1.079988646E-02 6.985383875E+04 9.999335879E+01 2.736232548E+00
 -1.255454179E-01 -9.872328416E-03 6.987756062E+04 9.972505702E+01 2.952816115E+00
 -1.124128858E-01 -9.024491426E-03 6.990484496E+04 9.941561871E+01 3.184599880E+00
 -1.004227745E-01 -8.250221721E-03 6.993622290E+04 9.905863501E+01 3.432584204E+00
 -8.948406936E-02 -7.543808582E-03 6.997230803E+04 9.864661812E+01 3.697851374E+00
 -7.951263964E-02 -6.899951192E-03 7.001381098E+04 9.817075750E+01 3.981569349E+00
 -7.043073532E-02 -6.313728471E-03 7.006156040E+04 9.762065713E+01 4.284989042E+00
 -6.216651971E-02 -5.780571708E-03 7.011652489E+04 9.698383364E+01 4.609457802E+00
 -5.465363557E-02 -5.296239667E-03 7.017985081E+04 9.624544993E+01 4.956389374E+00
 -4.783080228E-02 -4.856795881E-03 7.025286607E+04 9.538707886E+01 5.327264044E+00
 -4.164144195E-02 -4.458588046E-03 7.033710338E+04 9.438889428E+01 5.724736139E+00
 -3.603885338E-02 -4.057935333E-03 7.043394300E+04 9.322742004E+01 6.164777855E+00
 -3.099242070E-02 -3.515120348E-03 7.054504531E+04 9.187499071E+01 6.669608067E+00
 -2.643184297E-02 -3.025015705E-03 7.067348620E+04 9.028685247E+01 7.242347194E+00
 -2.231635397E-02 -2.583176646E-03 7.082322695E+04 8.839811911E+01 7.886061502E+00
 -1.860836929E-02 -2.185498545E-03 7.099875476E+04 8.613184102E+01 8.617104884E+00
 -1.527324891E-02 -1.828193662E-03 7.120575460E+04 8.337569735E+01 9.462438441E+00
 -1.227907697E-02 -1.507769264E-03 7.145219352E+04 7.997266991E+01 1.044912753E+01
 -9.596457539E-03 -1.221007037E-03 7.174807960E+04 7.565617873E+01 1.164997140E+01
 -7.198325158E-03 -9.649436591E-04 7.210821750E+04 7.005451635E+01 1.309267266E+01
 -5.059769154E-03 -7.368524335E-04 7.254245078E+04 6.237564706E+01 1.506935482E+01
 -3.157870745E-03 -5.342256277E-04 7.305276599E+04 5.184388618E+01 1.755718772E+01
 -1.471551958E-03 -3.547568791E-04 7.350452800E+04 3.784716136E+01 2.316944333E+01
 1.856476775E-05 -1.963187265E-04 7.368168355E+04 2.987372179E+01 2.749791257E+01
 -4.916318661E+00 -1.667794339E-01 6.969635565E+04 1.017562423E+02 9.266549192E-03
 -4.541386958E+00 -1.442784010E-01 6.969639091E+04 1.017557204E+02 1.434559916E-02
 -4.194111492E+00 -1.234315609E-01 6.969645502E+04 1.017547267E+02 2.605352447E-02
 -3.872506209E+00 -1.041202199E-01 6.969650741E+04 1.017537700E+02 3.999141298E-02
 -3.574724887E+00 -8.623404749E-02 6.969657111E+04 1.017527247E+02 5.513238245E-02
 -3.297411217E+00 -7.824131714E-02 6.969667999E+04 1.017513480E+02 7.131953512E-02
 -3.040399768E+00 -7.237635793E-02 6.969682933E+04 1.017495992E+02 8.857540779E-02
 -2.802556965E+00 -6.694366213E-02 6.969700164E+04 1.017476123E+02 1.069579998E-01
 -2.582495372E+00 -6.191203670E-02 6.969720087E+04 1.017453357E+02 1.265592530E-01
 -2.378925818E+00 -5.725249398E-02 6.969743337E+04 1.017427052E+02 1.474983476E-01
 -2.190650547E+00 -5.293809780E-02 6.969770253E+04 1.017396792E+02 1.699048794E-01
 -2.016556848E+00 -4.894382043E-02 6.969801314E+04 1.017362013E+02 1.939186246E-01
 -1.855611115E+00 -4.524640977E-02 6.969837155E+04 1.017322012E+02 2.196926643E-01
 -1.706853324E+00 -4.182426592E-02 6.969878483E+04 1.017276002E+02 2.473932647E-01
 -1.569391883E+00 -3.865732640E-02 6.969926108E+04 1.017223074E+02 2.772000806E-01
 -1.442398842E+00 -3.572695955E-02 6.969980981E+04 1.017162163E+02 3.093070327E-01
 -1.325105436E+00 -3.301586539E-02 6.970044208E+04 1.017092036E+02 3.439230530E-01
 -1.216797926E+00 -3.050798352E-02 6.970117071E+04 1.017011258E+02 3.812728110E-01
 -1.116813741E+00 -2.818840738E-02 6.970201065E+04 1.016918161E+02 4.215975574E-01
 -1.024537877E+00 -2.604330459E-02 6.970297925E+04 1.016810805E+02 4.651559825E-01
 -9.393995476E-01 -2.405984283E-02 6.970409667E+04 1.016686934E+02 5.122250862E-01
 -8.608690716E-01 -2.222612077E-02 6.970538637E+04 1.016543926E+02 5.631010960E-01
 -7.884549701E-01 -2.053110385E-02 6.970687557E+04 1.016378736E+02 6.181005081E-01
 -7.217012691E-01 -1.896456431E-02 6.970859586E+04 1.016187825E+02 6.775606684E-01
 -6.601849887E-01 -1.751702539E-02 6.971058389E+04 1.015967087E+02 7.418410081E-01
 -6.035138068E-01 -1.617970910E-02 6.971288219E+04 1.015711756E+02 8.113238911E-01
 -5.513238855E-01 -1.494448744E-02 6.971553996E+04 1.015416324E+02 8.864158449E-01
 -5.032778496E-01 -1.380383679E-02 6.971861400E+04 1.015074346E+02 9.675490017E-01
 -4.590629054E-01 -1.275079509E-02 6.972216998E+04 1.014678413E+02 1.055174256E+00
 -4.183890914E-01 -1.177892162E-02 6.972628406E+04 1.014220032E+02 1.149770046E+00
 -3.809876509E-01 -1.088225931E-02 6.973104429E+04 1.013689293E+02 1.251862760E+00
 -3.466095190E-01 -1.005529913E-02 6.973655151E+04 1.013074776E+02 1.361995112E+00
 -3.150239154E-01 -9.292946587E-03 6.974292159E+04 1.012363332E+02 1.480725752E+00
 -2.860170351E-01 -8.590490198E-03 6.975028822E+04 1.011539767E+02 1.608660402E+00
 -2.593908328E-01 -7.943571695E-03 6.975880506E+04 1.010586580E+02 1.746440534E+00
 -2.349618907E-01 -7.348158023E-03 6.976864823E+04 1.009483637E+02 1.894741720E+00
 -2.125603674E-01 -6.800515018E-03 6.978001965E+04 1.008207759E+02 2.054281196E+00
 -1.920290201E-01 -6.297182735E-03 6.979315078E+04 1.006732253E+02 2.225822564E+00
 -1.732222965E-01 -5.834952438E-03 6.980830679E+04 1.005026376E+02 2.410180500E+00
 -1.560054896E-01 -5.410845236E-03 6.982579150E+04 1.003054683E+02 2.608227647E+00
 -1.402539537E-01 -5.022092394E-03 6.984595311E+04 1.000776263E+02 2.820903281E+00
 -1.258523749E-01 -4.666117295E-03 6.986919100E+04 9.981437934E+01 3.049222284E+00
 -1.126940936E-01 -4.340519072E-03 6.989596404E+04 9.951024001E+01 3.294286760E+00
 -1.006804755E-01 -4.043057881E-03 6.992680055E+04 9.915881907E+01 3.557299874E+00
 -8.972032653E-02 -3.771641776E-03 6.996231070E+04 9.875265261E+01 3.839579482E+00
 -7.972935038E-02 -3.524315118E-03 7.000320101E+04 9.828295713E+01 4.142574137E+00
 -7.062964391E-02 -3.299248425E-03 7.005029530E+04 9.773936981E+01 4.467873488E+00
 -6.234922908E-02 -3.094729565E-03 7.010455613E+04 9.710944306E+01 4.817233411E+00
 -5.482161815E-02 -2.909156091E-03 7.016712341E+04 9.637838721E+01 5.192557364E+00
 -4.798541013E-02 -2.741028558E-03 7.023931712E+04 9.552779312E+01 5.595961044E+00
 -4.178391601E-02 -2.588944748E-03 7.032266368E+04 9.453788884E+01 6.030608710E+00
 -3.616898029E-02 -2.415403616E-03 7.041852468E+04 9.338541311E+01 6.512387140E+00
 -3.110510738E-02 -2.094382268E-03 7.052852423E+04 9.204295163E+01 7.062927820E+00
 -2.652876711E-02 -1.804715038E-03 7.065572026E+04 9.046594145E+01 7.686366061E+00
 -2.239905258E-02 -1.543749665E-03 7.080404298E+04 8.858950497E+01 8.388111480E+00
 -1.867824973E-02 -1.309034085E-03 7.097794774E+04 8.633739228E+01 9.186236625E+00
 -1.533159904E-02 -1.098303599E-03 7.118301040E+04 8.359700653E+01 1.011043612E+01
 -1.232707462E-02 -9.094686701E-04 7.142722131E+04 8.021328751E+01 1.119079195E+01
 -9.635179142E-03 -7.406033173E-04 7.172019289E+04 7.591701205E+01 1.250663523E+01
 -7.228753816E-03 -5.899340243E-04 7.207714079E+04 7.034387649E+01 1.409425643E+01
 -5.082802045E-03 -4.558291052E-04 7.250604550E+04 6.269153083E+01 1.626367274E+01
 -3.174325982E-03 -3.367882246E-04 7.301159188E+04 5.220139624E+01 1.899276591E+01
 -1.482174921E-03 -2.314313973E-04 7.345377407E+04 3.827733462E+01 2.478765761E+01
 1.309555987E-05 -1.384829409E-04 7.362221907E+04 3.034184955E+01 2.916952398E+01
 -4.919121367E+00 4.110405248E-02 6.969574329E+04 1.017586672E+02 9.523918772E-03
 -4.543642400E+00 4.540008532E-02 6.969575667E+04 1.017584880E+02 1.462801139E-02
 -4.195860060E+00 4.938476506E-02 6.969578134E+04 1.017581679E+02 2.638934965E-02
 -3.873785391E+00 5.308035005E-02 6.969580241E+04 1.017578551E+02 4.038396581E-02
 -3.575569474E+00 5.650754053E-02 6.969583475E+04 1.017574456E+02 5.558319029E-02
 -3.298145329E+00 5.303096766E-02 6.969590251E+04 1.017567562E+02 7.184272076E-02
 -3.041081168E+00 4.868043281E-02 6.969600308E+04 1.017557458E+02 8.919216721E-02
 -2.803189596E+00 4.465954606E-02 6.969612325E+04 1.017545168E+02 1.076843169E-01
 -2.583082889E+00 4.094435300E-02 6.969626625E+04 1.017530275E+02 1.274113693E-01
 -2.379471610E+00 3.751259951E-02 6.969643747E+04 1.017512240E+02 1.484954551E-01
 -2.191157757E+00 3.434361359E-02 6.969664010E+04 1.017490688E+02 1.710688484E-01
 -2.017028388E+00 3.141819496E-02 6.969687853E+04 1.017465118E+02 1.952741483E-01
 -1.856049687E+00 2.871851203E-02 6.969715854E+04 1.017434894E+02 2.212680892E-01
 -1.707261430E+00 2.622800560E-02 6.969748671E+04 1.017399289E+02 2.492214000E-01
 -1.569771843E+00 2.393129910E-02 6.969787067E+04 1.017357454E+02 2.793189244E-01
 -1.442752805E+00 2.181411475E-02 6.969831939E+04 1.017308392E+02 3.117606245E-01
 -1.325435392E+00 1.986319544E-02 6.969884341E+04 1.017250930E+02 3.467624565E-01
 -1.217105720E+00 1.806623178E-02 6.969945501E+04 1.017183699E+02 3.845572071E-01
 -1.117101082E+00 1.641179419E-02 6.970016858E+04 1.017105096E+02 4.253954726E-01
 -1.024806345E+00 1.488926961E-02 6.970100089E+04 1.017013246E+02 4.695467020E-01
 -9.396506087E-01 1.348880255E-02 6.970197155E+04 1.016905963E+02 5.173002872E-01
 -8.611040816E-01 1.220124023E-02 6.970310339E+04 1.016780690E+02 5.689666718E-01
 -7.886751844E-01 1.101808163E-02 6.970442305E+04 1.016634451E+02 6.248784843E-01
 -7.219078495E-01 9.931430139E-03 6.970596152E+04 1.016463774E+02 6.853917806E-01
 -6.603790105E-01 8.933949615E-03 6.970775484E+04 1.016264620E+02 7.508870493E-01
 -6.036962648E-01 8.018823733E-03 6.970984489E+04 1.016032291E+02 8.217708836E-01
 -5.514957002E-01 7.179718367E-03 6.971228025E+04 1.015761328E+02 8.984771594E-01
 -5.034398722E-01 6.410746894E-03 6.971511727E+04 1.015445415E+02 9.814671531E-01
 -4.592159231E-01 5.706438236E-03 6.971842112E+04 1.015077169E+02 1.071235254E+00
 -4.185338319E-01 5.061707513E-03 6.972226693E+04 1.014648071E+02 1.168297109E+00
 -3.811247869E-01 4.471829146E-03 6.972674186E+04 1.014148341E+02 1.273201086E+00
 -3.467396720E-01 3.932412269E-03 6.973194683E+04 1.013566629E+02 1.386557259E+00
 -3.151476593E-01 3.439378290E-03 6.973799729E+04 1.012889834E+02 1.508994952E+00
 -2.861349001E-01 2.988940463E-03 6.974502574E+04 1.012102839E+02 1.641165575E+00
 -2.595033080E-01 2.577585278E-03 6.975318504E+04 1.011188192E+02 1.783780290E+00
 -2.350694273E-01 2.202055517E-03 6.976265070E+04 1.010125805E+02 1.937596379E+00
 -2.126633814E-01 1.859334768E-03 6.977362373E+04 1.008892569E+02 2.103417741E+00
 -1.921278950E-01 1.546633239E-03 6.978633447E+04 1.007461874E+02 2.282104925E+00
 -1.733173852E-01 1.261374644E-03 6.980104679E+04 1.005803072E+02 2.474582014E+00
 -1.560971172E-01 1.001183983E-03 6.981806294E+04 1.003880834E+02 2.681844219E+00
 -1.403424190E-01 7.638760433E-04 6.983772916E+04 1.001654391E+02 2.904969083E+00
 -1.259379526E-01 5.474444293E-04 6.986044246E+04 9.990765917E+01 3.145128665E+00
 -1.127770360E-01 3.500509933E-04 6.988665883E+04 9.960927773E+01 3.403604676E+00
 -1.007610143E-01 1.700155326E-04 6.991690293E+04 9.926393268E+01 3.681808173E+00
 -8.979867437E-02 5.805666310E-06 6.995178051E+04 9.886419388E+01 3.981299508E+00
 -7.980570219E-02 -1.439731607E-04 6.999199264E+04 9.840131748E+01 4.303814900E+00
 -7.070417847E-02 -2.805875899E-04 7.003835663E+04 9.786499117E+01 4.651285686E+00
 -6.242211025E-02 -4.051861460E-04 7.009182661E+04 9.724282787E+01 5.025885824E+00
 -5.489299611E-02 -5.188088554E-04 7.015353276E+04 9.652011473E+01 5.430030686E+00
 -4.805542249E-02 -6.223966138E-04 7.022478295E+04 9.567853041E+01 5.866495027E+00
 -4.185268888E-02 -7.168002976E-04 7.030709581E+04 9.469827232E+01 6.339047064E+00
 -3.623527548E-02 -7.707107811E-04 7.040183363E+04 9.355615726E+01 6.863107861E+00
 -3.116289536E-02 -6.717810936E-04 7.051059852E+04 9.222489536E+01 7.459599368E+00
 -2.657886568E-02 -5.828220580E-04 7.063641166E+04 9.066026917E+01 8.134035473E+00
 -2.244221099E-02 -5.029759094E-04 7.078314551E+04 8.879768623E+01 8.894262767E+00
 -1.871515405E-02 -4.314450072E-04 7.095522191E+04 8.656159777E+01 9.760012468E+00
 -1.536287719E-02 -3.674894352E-04 7.115809478E+04 8.383920523E+01 1.076373764E+01
 -1.235330090E-02 -3.104244929E-04 7.139977631E+04 8.047781642E+01 1.193808033E+01
 -9.656878520E-03 -2.596180747E-04 7.168943185E+04 7.620610230E+01 1.336932317E+01
 -7.246405793E-03 -2.144879253E-04 7.204272079E+04 7.066692221E+01 1.509970979E+01
 -5.096844291E-03 -1.744987368E-04 7.246574421E+04 6.304953954E+01 1.745628297E+01
 -3.185157664E-03 -1.391588709E-04 7.296594260E+04 5.261444038E+01 2.041558288E+01
 -1.490159777E-03 -1.080159065E-04 7.339856158E+04 3.876474365E+01 2.639611149E+01
 7.626351982E-06 -8.064715534E-05 7.355856398E+04 3.086106819E+01 3.084248470E+01
 -4.913313371E+00 2.489252871E-01 6.969512847E+04 1.017611056E+02 9.610458734E-03
 -4.537947233E+00 2.350209326E-01 6.969511981E+04 1.017612721E+02 1.473098221E-02
 -4.190269420E+00 2.221477293E-01 6.969510454E+04 1.017616326E+02 2.653444766E-02
 -3.868291571E+00 2.102315369E-01 6.969509387E+04 1.017619695E+02 4.058831841E-02
 -3.570165317E+00 1.992034515E-01 6.969509462E+04 1.017621993E+02 5.585914409E-02
 -3.293115975E+00 1.842602787E-01 6.969512094E+04 1.017622023E+02 7.220183325E-02
 -3.036448323E+00 1.696974790E-01 6.969517221E+04 1.017619374E+02 8.964594250E-02
 -2.798923696E+00 1.562260010E-01 6.969523966E+04 1.017614738E+02 1.082422084E-01
 -2.579156510E+00 1.437667599E-01 6.969532582E+04 1.017607796E+02 1.280852529E-01
 -2.375859315E+00 1.322462754E-01 6.969543503E+04 1.017598121E+02 1.493006214E-01
 -2.187835956E+00 1.215962823E-01 6.969557028E+04 1.017585381E+02 1.720238794E-01
 -2.013975207E+00 1.117533661E-01 6.969573554E+04 1.017569133E+02 1.964012955E-01
 -1.853244844E+00 1.026586242E-01 6.969593601E+04 1.017548812E+02 2.225937681E-01
 -1.704686126E+00 9.425735048E-02 6.969617776E+04 1.017523756E+02 2.507767192E-01
 -1.567408651E+00 8.649874055E-02 6.969646790E+04 1.017493182E+02 2.811403244E-01
 -1.440585577E+00 7.933561770E-02 6.969681485E+04 1.017456157E+02 3.138906547E-01
 -1.323449166E+00 7.272417749E-02 6.969722858E+04 1.017411576E+02 3.492506996E-01
 -1.215286633E+00 6.662374988E-02 6.969772081E+04 1.017358140E+02 3.874613508E-01
 -1.115436293E+00 6.099657769E-02 6.969830531E+04 1.017294315E+02 4.287825387E-01
 -1.023283964E+00 5.580761036E-02 6.969899825E+04 1.017218299E+02 4.734944556E-01
 -9.382596245E-01 5.102431194E-02 6.969981859E+04 1.017127976E+02 5.218988277E-01
 -8.598343004E-01 4.661648243E-02 6.970078854E+04 1.017020866E+02 5.743202457E-01
 -7.875171706E-01 4.255609158E-02 6.970193403E+04 1.016894066E+02 6.311075705E-01
 -7.208528714E-01 3.881712428E-02 6.970328540E+04 1.016744181E+02 6.926353554E-01
 -6.594189887E-01 3.537543692E-02 6.970487799E+04 1.016567247E+02 7.593053030E-01
 -6.028237254E-01 3.220862382E-02 6.970675298E+04 1.016358641E+02 8.315479769E-01
 -5.507037307E-01 2.929589332E-02 6.970895826E+04 1.016112984E+02 9.098240892E-01
 -5.027220808E-01 2.661795269E-02 6.971154943E+04 1.015824015E+02 9.946260876E-01
 -4.585664007E-01 2.415690147E-02 6.971459105E+04 1.015484475E+02 1.086480714E+00
 -4.179471166E-01 2.189613259E-02 6.971815771E+04 1.015085908E+02 1.185953606E+00
 -3.805958316E-01 1.982024086E-02 6.972233539E+04 1.014618516E+02 1.293634423E+00
 -3.462638139E-01 1.791493819E-02 6.972722390E+04 1.014071048E+02 1.410154768E+00
 -3.147205915E-01 1.616697533E-02 6.973293872E+04 1.013430520E+02 1.536220791E+00
 -2.857526454E-01 1.456406940E-02 6.973961173E+04 1.012681902E+02 1.672562295E+00
 -2.591621946E-01 1.309483697E-02 6.974739433E+04 1.011807819E+02 1.819939495E+00