TITLE     = "fluent22.1.0  build-id: 10213"
VARIABLES = "X"
"Y"
"Pressure"
"X Velocity"
"Y Velocity"
DATASETAUXDATA Common.DensityVar="23"
DATASETAUXDATA Common.PressureVar="3"
DATASETAUXDATA Common.TemperatureVar="12"
DATASETAUXDATA Common.TurbulentDynamicViscosityVar="17"
DATASETAUXDATA Common.UVar="5"
DATASETAUXDATA Common.VectorVarsAreVelocity="TRUE"
DATASETAUXDATA Common.ViscosityVar="25"
DATASETAUXDATA Common.VVar="7"
ZONE T="fluid"
 STRANDID=1, SOLUTIONTIME=0.75
 Nodes=10240, Elements=10080, ZONETYPE=FEQuadrilateral
 DATAPACKING=POINT
 DT=(DOUBLE DOUBLE DOUBLE DOUBLE DOUBLE )
 -4.856290020E+00 -7.872354469E-01 6.969839569E+04 1.017482864E+02 8.321919830E-03
 -4.486958823E+00 -7.103771193E-01 6.969850422E+04 1.017466218E+02 1.375122101E-02
 -4.884823481E+00 -5.813004056E-01 6.969774516E+04 1.017507985E+02 9.045959583E-03
 -4.512972470E+00 -5.224971024E-01 6.969782847E+04 1.017495133E+02 1.450892696E-02
 -4.144870605E+00 -6.391818037E-01 6.969869746E+04 1.017434013E+02 2.631036361E-02
 -4.168550339E+00 -4.680251298E-01 6.969797774E+04 1.017470262E+02 2.712501786E-02
 -3.828069000E+00 -5.732430282E-01 6.969885118E+04 1.017403161E+02 4.130336782E-02
 -3.849587368E+00 -4.175736011E-01 6.969809672E+04 1.017446399E+02 4.216596862E-02
 -3.534735379E+00 -5.121828615E-01 6.969901896E+04 1.017371526E+02 5.756671906E-02
 -3.554252517E+00 -3.708534912E-01 6.969822852E+04 1.017421786E+02 5.849302909E-02
 -3.260662715E+00 -4.699739776E-01 6.969926319E+04 1.017335043E+02 7.485864135E-02
 -3.278619539E+00 -3.400016802E-01 6.969842814E+04 1.017392750E+02 7.589083816E-02
 -3.006503207E+00 -4.336352649E-01 6.969957149E+04 1.017293304E+02 9.320106030E-02
 -3.023064927E+00 -3.137767324E-01 6.969868550E+04 1.017358866E+02 9.437874382E-02
 -2.771299549E+00 -4.000012036E-01 6.969991413E+04 1.017248509E+02 1.127106354E-01
 -2.786570228E+00 -2.895021214E-01 6.969897337E+04 1.017322173E+02 1.140541705E-01
 -2.553679714E+00 -3.688761342E-01 6.970029751E+04 1.017199841E+02 1.334900941E-01
 -2.567755881E+00 -2.670367845E-01 6.969929746E+04 1.017281930E+02 1.350190016E-01
 -2.352368842E+00 -3.400782502E-01 6.970073016E+04 1.017146395E+02 1.556562379E-01
 -2.365340029E+00 -2.462496453E-01 6.969966588E+04 1.017237283E+02 1.573938456E-01
 -2.166182479E+00 -3.134386319E-01 6.970121623E+04 1.017087603E+02 1.793406841E-01
 -2.178131712E+00 -2.270189170E-01 6.970008242E+04 1.017187716E+02 1.813133303E-01
 -1.994020267E+00 -2.888003478E-01 6.970176206E+04 1.017022690E+02 2.046860023E-01
 -2.005024533E+00 -2.092314555E-01 6.970055286E+04 1.017132524E+02 2.069232268E-01
 -1.834860077E+00 -2.660176189E-01 6.970237560E+04 1.016950750E+02 2.318465888E-01
 -1.844990750E+00 -1.927821557E-01 6.970108470E+04 1.017070859E+02 2.343816282E-01
 -1.687752543E+00 -2.449550397E-01 6.970306537E+04 1.016870799E+02 2.609889795E-01
 -1.697075786E+00 -1.775733915E-01 6.970168601E+04 1.017001796E+02 2.638594933E-01
 -1.551815971E+00 -2.254868540E-01 6.970384096E+04 1.016781733E+02 2.922924108E-01
 -1.560393106E+00 -1.635144925E-01 6.970236594E+04 1.016924291E+02 2.955411205E-01
 -1.426231605E+00 -2.074962799E-01 6.970471343E+04 1.016682289E+02 3.259490882E-01
 -1.434119459E+00 -1.505212594E-01 6.970313507E+04 1.016837144E+02 3.296246631E-01
 -1.310239212E+00 -1.908748828E-01 6.970569537E+04 1.016571037E+02 3.621646182E-01
 -1.317490439E+00 -1.385155106E-01 6.970400552E+04 1.016738984E+02 3.663226320E-01
 -1.203132977E+00 -1.755219909E-01 6.970680118E+04 1.016446345E+02 4.011585218E-01
 -1.209796357E+00 -1.274246622E-01 6.970499123E+04 1.016628238E+02 4.058624965E-01
 -1.104257685E+00 -1.613441513E-01 6.970804736E+04 1.016306347E+02 4.431646370E-01
 -1.110378400E+00 -1.171813360E-01 6.970610824E+04 1.016503100E+02 4.484873088E-01
 -1.013005157E+00 -1.482546246E-01 6.970945285E+04 1.016148909E+02 4.884315266E-01
 -1.018625051E+00 -1.077229951E-01 6.970737502E+04 1.016361490E+02 4.944563201E-01
 -9.288109440E-01 -1.361729136E-01 6.971103942E+04 1.015971577E+02 5.372232467E-01
 -9.339687629E-01 -9.899160518E-02 6.970881287E+04 1.016201011E+02 5.440455238E-01
 -8.511512439E-01 -1.250243250E-01 6.971283208E+04 1.015771536E+02 5.898194458E-01
 -8.558828584E-01 -9.093331811E-02 6.971044636E+04 1.016018902E+02 5.975482100E-01
 -7.795400332E-01 -1.147395621E-01 6.971485961E+04 1.015545553E+02 6.465149945E-01
 -7.838786461E-01 -8.349817876E-02 6.971230382E+04 1.015811977E+02 6.552757204E-01
 -7.135263994E-01 -1.052543446E-01 6.971715517E+04 1.015289909E+02 7.076219705E-01
 -7.175027384E-01 -7.663985128E-02 6.971441796E+04 1.015576558E+02 7.175580402E-01
 -6.526920576E-01 -9.650905537E-02 6.971975678E+04 1.015000283E+02 7.734688994E-01
 -6.563345546E-01 -7.031536456E-02 6.971682649E+04 1.015308409E+02 7.847431282E-01
 -5.966490408E-01 -8.844841168E-02 6.972270826E+04 1.014671750E+02 8.443980155E-01
 -5.999839981E-01 -6.448487508E-02 6.971957291E+04 1.015002617E+02 8.571998242E-01
 -5.450375500E-01 -8.102115872E-02 6.972606026E+04 1.014298635E+02 9.207681776E-01
 -5.480892950E-01 -5.911144613E-02 6.972270737E+04 1.014653524E+02 9.353139642E-01
 -4.975239553E-01 -7.417978436E-02 6.972987104E+04 1.013874379E+02 1.002958960E+00
 -5.003149842E-01 -5.416084207E-02 6.972628759E+04 1.014254592E+02 1.019489564E+00
 -4.537989357E-01 -6.788025344E-02 6.973420759E+04 1.013391441E+02 1.091369243E+00
 -4.563500468E-01 -4.960133656E-02 6.973038035E+04 1.013798335E+02 1.110154938E+00
 -4.135757491E-01 -6.208176020E-02 6.973914686E+04 1.012841113E+02 1.186406967E+00
 -4.159061666E-01 -4.540353383E-02 6.973506276E+04 1.013276090E+02 1.207765869E+00
 -3.765886233E-01 -5.674649758E-02 6.974477730E+04 1.012213393E+02 1.288492824E+00
 -3.787161124E-01 -4.154020199E-02 6.974042306E+04 1.012677821E+02 1.312791337E+00
 -3.425912593E-01 -5.183944211E-02 6.975120077E+04 1.011496740E+02 1.398069696E+00
 -3.445322332E-01 -3.798611748E-02 6.974656257E+04 1.011992035E+02 1.425713694E+00
 -3.113554402E-01 -4.732815348E-02 6.975853438E+04 1.010677870E+02 1.515597050E+00
 -3.131250590E-01 -3.471791999E-02 6.975359817E+04 1.011205449E+02 1.547046439E+00
 -2.826697362E-01 -4.318258753E-02 6.976691253E+04 1.009741493E+02 1.641548718E+00
 -2.842819991E-01 -3.171397706E-02 6.976166426E+04 1.010302764E+02 1.677326804E+00
 -2.563383025E-01 -3.937492205E-02 6.977648949E+04 1.008670014E+02 1.776415505E+00
 -2.578061331E-01 -2.895425769E-02 6.977091492E+04 1.009266382E+02 1.817113376E+00
 -2.321797595E-01 -3.587939423E-02 6.978744226E+04 1.007443181E+02 1.920706388E+00
 -2.335150855E-01 -2.642021446E-02 6.978152691E+04 1.008076049E+02 1.966990555E+00
 -2.100261536E-01 -3.267214934E-02 6.979997383E+04 1.006037680E+02 2.074949279E+00
 -2.112399800E-01 -2.409467366E-02 6.979370297E+04 1.006708444E+02 2.127571177E+00
 -1.897219902E-01 -2.973109975E-02 6.981431692E+04 1.004426668E+02 2.239692783E+00
 -1.908244678E-01 -2.196173281E-02 6.980767548E+04 1.005136719E+02 2.299498665E+00
 -1.711233350E-01 -2.703579378E-02 6.983073832E+04 1.002579209E+02 2.415508931E+00
 -1.721238239E-01 -2.000666542E-02 6.982371078E+04 1.003329939E+02 2.483450767E+00
 -1.540969789E-01 -2.456729382E-02 6.984954399E+04 1.000459622E+02 2.602994917E+00
 -1.550041071E-01 -1.821583241E-02 6.984211422E+04 1.001252430E+02 2.680143095E+00
 -1.385196621E-01 -2.230806325E-02 6.987108493E+04 9.980266838E+01 2.802779960E+00
 -1.393413805E-01 -1.657660001E-02 6.986323607E+04 9.988629708E+01 2.890338707E+00
 -1.242773528E-01 -2.024186165E-02 6.989576406E+04 9.952326982E+01 3.015518204E+00
 -1.250209855E-01 -1.507726375E-02 6.988747837E+04 9.961138897E+01 3.114842302E+00
 -1.112645772E-01 -1.835364790E-02 6.992404410E+04 9.920224000E+01 3.241901276E+00
 -1.119368688E-01 -1.370697823E-02 6.991530268E+04 9.929499440E+01 3.354517264E+00
 -9.938379712E-02 -1.662949064E-02 6.995645827E+04 9.883313837E+01 3.482663400E+00
 -9.999095626E-02 -1.245569248E-02 6.994724082E+04 9.893067189E+01 3.610295608E+00
 -8.854483175E-02 -1.505648586E-02 6.999362402E+04 9.840842703E+01 3.738569016E+00
 -8.909257157E-02 -1.131409049E-02 6.998390864E+04 9.851088396E+01 3.883168806E+00
 -7.866432083E-02 -1.362268099E-02 7.003625723E+04 9.791922635E+01 4.010405956E+00
 -7.915789656E-02 -1.027353668E-02 7.002601944E+04 9.802676338E+01 4.174194008E+00
 -6.966522586E-02 -1.231700500E-02 7.008519161E+04 9.735507146E+01 4.298937388E+00
 -7.010946966E-02 -9.326025897E-03 7.007440423E+04 9.746785324E+01 4.484485552E+00
 -6.147636714E-02 -1.112920447E-02 7.014139790E+04 9.670345238E+01 4.604881868E+00
 -6.187572034E-02 -8.464137770E-03 7.013003445E+04 9.682159455E+01 4.815203912E+00
 -5.403199385E-02 -1.004978481E-02 7.020602546E+04 9.594949753E+01 4.928955290E+00
 -5.439053692E-02 -7.680994891E-03 7.019405989E+04 9.607306717E+01 5.167530602E+00
 -4.727138499E-02 -9.069955709E-03 7.028040650E+04 9.507473395E+01 5.271763449E+00
 -4.759286523E-02 -6.970224336E-03 7.026781032E+04 9.520374379E+01 5.542610596E+00
 -4.113847889E-02 -8.181581642E-03 7.036608327E+04 9.405920335E+01 5.635367879E+00
 -4.142633613E-02 -6.325922604E-03 7.035281567E+04 9.419381520E+01 5.943059546E+00
 -3.558974609E-02 -7.328663686E-03 7.046446461E+04 9.287881690E+01 6.037804028E+00
 -3.584579010E-02 -5.698235701E-03 7.045042835E+04 9.301973330E+01 6.386632666E+00
 -3.060459511E-02 -6.344043479E-03 7.057721521E+04 9.150556478E+01 6.502988470E+00
 -3.082557817E-02 -4.933726713E-03 7.056227318E+04 9.165388252E+01 6.896832746E+00
 -2.609940782E-02 -5.454719563E-03 7.070744464E+04 8.989443641E+01 7.031292212E+00
 -2.628870354E-02 -4.243316051E-03 7.069145669E+04 9.005128954E+01 7.475413621E+00
 -2.203391175E-02 -4.652669729E-03 7.085914285E+04 8.797983850E+01 7.622587618E+00
 -2.219461087E-02 -3.620761480E-03 7.084195250E+04 8.814607947E+01 8.124363599E+00
 -1.837097757E-02 -3.930490702E-03 7.103681689E+04 8.568460214E+01 8.291584206E+00
 -1.850591001E-02 -3.060300648E-03 7.101825252E+04 8.586160519E+01 8.860057162E+00
 -1.507638455E-02 -3.281354319E-03 7.124618763E+04 8.289450394E+01 9.062885878E+00
 -1.518813993E-02 -2.556617637E-03 7.122596964E+04 8.308340228E+01 9.709338619E+00
 -1.211860313E-02 -2.698966538E-03 7.149529029E+04 7.945343576E+01 9.960362381E+00
 -1.220954964E-02 -2.104811582E-03 7.147316544E+04 7.965753398E+01 1.069883083E+01
 -9.468593156E-03 -2.177529071E-03 7.179405131E+04 7.508687005E+01 1.105207395E+01
 -9.540895034E-03 -1.700367213E-03 7.176941757E+04 7.530593818E+01 1.190215893E+01
 -7.099616750E-03 -1.711703415E-03 7.215734078E+04 6.943772891E+01 1.235954388E+01
 -7.155250451E-03 -1.339127174E-03 7.213010619E+04 6.967999138E+01 1.334371005E+01
 -4.987064796E-03 -1.296577114E-03 7.259407501E+04 6.167529615E+01 1.418857240E+01
 -5.027833918E-03 -1.017265976E-03 7.256222185E+04 6.193033115E+01 1.534605246E+01
 -3.108296007E-03 -9.276317595E-04 7.310540712E+04 5.113910248E+01 1.650339506E+01
 -3.135845093E-03 -7.312651341E-04 7.307028136E+04 5.141694382E+01 1.789023852E+01
 -1.442487666E-03 -6.007120846E-04 7.355424958E+04 3.685875144E+01 2.226482452E+01
 -1.458314952E-03 -4.778888378E-04 7.350971196E+04 3.721769452E+01 2.381010467E+01
 2.950318352E-05 -3.119902977E-04 7.372826965E+04 2.853927658E+01 2.684272639E+01
 2.403397564E-05 -2.541545121E-04 7.367405112E+04 2.895183710E+01 2.841807824E+01
 -4.904860300E+00 -3.743658139E-01 6.969708517E+04 1.017533733E+02 9.658218406E-03
 -4.531140837E+00 -3.336943445E-01 6.969714488E+04 1.017524576E+02 1.514923774E-02
 -4.184988105E+00 -2.960168330E-01 6.969725255E+04 1.017506940E+02 2.781065012E-02
 -3.864422483E+00 -2.611184039E-01 6.969733880E+04 1.017490052E+02 4.288447838E-02
 -3.567603726E+00 -2.287993047E-01 6.969743678E+04 1.017472410E+02 5.925206007E-02
 -3.290889141E+00 -2.093616968E-01 6.969759238E+04 1.017450831E+02 7.672992541E-02
 -3.034382701E+00 -1.933026847E-01 6.969779815E+04 1.017424867E+02 9.534118038E-02
 -2.797007177E+00 -1.784358007E-01 6.969803076E+04 1.017396291E+02 1.151610373E-01
 -2.577377866E+00 -1.646748608E-01 6.969829509E+04 1.017364463E+02 1.362889427E-01
 -2.374208135E+00 -1.519397809E-01 6.969859859E+04 1.017328617E+02 1.588497040E-01
 -2.186302588E+00 -1.401561510E-01 6.969894480E+04 1.017288289E+02 1.829803323E-01
 -2.012550704E+00 -1.292548397E-01 6.969933899E+04 1.017242847E+02 2.088289737E-01
 -1.851920915E+00 -1.191716264E-01 6.969978813E+04 1.017191510E+02 2.365574522E-01
 -1.703455085E+00 -1.098468587E-01 6.970029984E+04 1.017133417E+02 2.663412840E-01
 -1.566263379E+00 -1.012251336E-01 6.970088277E+04 1.017067589E+02 2.983699645E-01
 -1.439519477E+00 -9.325500169E-02 6.970154698E+04 1.016992888E+02 3.328476904E-01
 -1.322456126E+00 -8.588869066E-02 6.970230411E+04 1.016908005E+02 3.699940057E-01
 -1.214360994E+00 -7.908184911E-02 6.970316759E+04 1.016811431E+02 4.100444939E-01
 -1.114572814E+00 -7.279330771E-02 6.970415292E+04 1.016701420E+02 4.532515363E-01
 -1.022477791E+00 -6.698485702E-02 6.970527807E+04 1.016575954E+02 4.998850742E-01
 -9.375062642E-01 -6.162104077E-02 6.970656382E+04 1.016432697E+02 5.502334427E-01
 -8.591295942E-01 -5.666896342E-02 6.970803420E+04 1.016268948E+02 6.046042110E-01
 -7.868572698E-01 -5.209811110E-02 6.970971703E+04 1.016081579E+02 6.633247191E-01
 -7.202342148E-01 -4.788018476E-02 6.971164449E+04 1.015866970E+02 7.267431273E-01
 -6.588382821E-01 -4.398894491E-02 6.971385380E+04 1.015620933E+02 7.952291647E-01
 -6.022779221E-01 -4.040006687E-02 6.971638798E+04 1.015338625E+02 8.691740793E-01
 -5.501900138E-01 -3.709100590E-02 6.971929681E+04 1.015014449E+02 9.489939713E-01
 -5.022378465E-01 -3.404087137E-02 6.972263756E+04 1.014641893E+02 1.035126568E+00
 -4.581092430E-01 -3.123030945E-02 6.972647620E+04 1.014213447E+02 1.128029283E+00
 -4.175148132E-01 -2.864139349E-02 6.973088935E+04 1.013720559E+02 1.228187289E+00
 -3.801863306E-01 -2.625752167E-02 6.973596542E+04 1.013153261E+02 1.336126048E+00
 -3.458752216E-01 -2.406332136E-02 6.974180544E+04 1.012500018E+02 1.452387693E+00
 -3.143511611E-01 -2.204455968E-02 6.974852548E+04 1.011747621E+02 1.577529494E+00
 -2.854007665E-01 -2.018805986E-02 6.975625945E+04 1.010880797E+02 1.712151294E+00
 -2.588263836E-01 -1.848162306E-02 6.976516116E+04 1.009881959E+02 1.856885782E+00
 -2.344449569E-01 -1.691395522E-02 6.977540689E+04 1.008730878E+02 2.012396399E+00
 -2.120869808E-01 -1.547459887E-02 6.978719875E+04 1.007404267E+02 2.179384266E+00
 -1.915955235E-01 -1.415386938E-02 6.980076843E+04 1.005875308E+02 2.358592721E+00
 -1.728253201E-01 -1.294279572E-02 6.981638142E+04 1.004113108E+02 2.550812001E+00
 -1.556419304E-01 -1.183306535E-02 6.983434197E+04 1.002082054E+02 2.756885012E+00
 -1.399209547E-01 -1.081697323E-02 6.985499900E+04 9.997409890E+01 2.977717633E+00
 -1.255473070E-01 -9.887374674E-03 6.987875295E+04 9.970423311E+01 3.214279698E+00
 -1.124145382E-01 -9.037642029E-03 6.990606337E+04 9.939309378E+01 3.467624224E+00
 -1.004242085E-01 -8.261624905E-03 6.993745960E+04 9.903425096E+01 3.738900327E+00
 -8.948530334E-02 -7.553613873E-03 6.997355454E+04 9.862018253E+01 4.029354676E+00
 -7.951369207E-02 -6.908307399E-03 7.001505805E+04 9.814203651E+01 4.340346778E+00
 -7.043162434E-02 -6.320781800E-03 7.006279723E+04 9.758937404E+01 4.673352992E+00
 -6.216726296E-02 -5.786464055E-03 7.011773877E+04 9.694965020E+01 5.029988188E+00
 -5.465425002E-02 -5.301107117E-03 7.018102754E+04 9.620795980E+01 5.411990468E+00
 -4.783130404E-02 -4.860767436E-03 7.025398746E+04 9.534575437E+01 5.821229340E+00
 -4.164184614E-02 -4.461784604E-03 7.033814225E+04 9.434327776E+01 6.260849971E+00
 -3.603917391E-02 -4.060468849E-03 7.043482075E+04 9.317725745E+01 6.747386543E+00
 -3.099266997E-02 -3.517093180E-03 7.054560212E+04 9.182049907E+01 7.303907546E+00
 -2.643203291E-02 -3.026521132E-03 7.067356675E+04 9.022824377E+01 7.934556861E+00
 -2.231649526E-02 -2.584298194E-03 7.082266878E+04 8.833436474E+01 8.643745311E+00
 -1.860847136E-02 -2.186310151E-03 7.099737732E+04 8.606285825E+01 9.449469127E+00
 -1.527332000E-02 -1.828760012E-03 7.120318241E+04 8.329872993E+01 1.038178967E+01
 -1.227912420E-02 -1.508146275E-03 7.144817479E+04 7.989047555E+01 1.147014160E+01
 -9.596486963E-03 -1.221242429E-03 7.174147620E+04 7.555660248E+01 1.279700789E+01
 -7.198341861E-03 -9.650775910E-04 7.209897969E+04 6.995857149E+01 1.438982757E+01
 -5.059777331E-03 -7.369181707E-04 7.252545030E+04 6.222995872E+01 1.658794125E+01
 -3.157873790E-03 -5.342501758E-04 7.302904453E+04 5.175647054E+01 1.936667379E+01
 -1.471552528E-03 -3.547614855E-04 7.345836664E+04 3.762911021E+01 2.545791242E+01
 1.856476775E-05 -1.963187265E-04 7.361278967E+04 2.939544504E+01 3.011729467E+01
 -4.916318661E+00 -1.667794339E-01 6.969642364E+04 1.017559827E+02 1.006554488E-02
 -4.541388376E+00 -1.442899552E-01 6.969645970E+04 1.017554395E+02 1.557804235E-02
 -4.194114164E+00 -1.234533366E-01 6.969652497E+04 1.017544069E+02 2.828532218E-02
 -3.872509982E+00 -1.041509888E-01 6.969657752E+04 1.017534168E+02 4.341327642E-02
 -3.574729623E+00 -8.627267869E-02 6.969664142E+04 1.017523415E+02 5.984789617E-02
 -3.297416794E+00 -7.828681143E-02 6.969675274E+04 1.017509227E+02 7.741965878E-02
 -3.040406070E+00 -7.242776154E-02 6.969690639E+04 1.017491164E+02 9.615267452E-02
 -2.802563883E+00 -6.700009000E-02 6.969708326E+04 1.017470698E+02 1.161090211E-01
 -2.582502807E+00 -6.197267602E-02 6.969728736E+04 1.017447302E+02 1.373881097E-01
 -2.378933678E+00 -5.731659871E-02 6.969752527E+04 1.017420309E+02 1.601190368E-01
 -2.190658748E+00 -5.300498355E-02 6.969780033E+04 1.017389303E+02 1.844421977E-01
 -2.016565314E+00 -4.901285977E-02 6.969811735E+04 1.017353716E+02 2.105090390E-01
 -1.855619775E+00 -4.531702783E-02 6.969848272E+04 1.017312837E+02 2.384854490E-01
 -1.706862114E+00 -4.189593635E-02 6.969890358E+04 1.017265868E+02 2.685516279E-01
 -1.569400743E+00 -3.872956775E-02 6.969938805E+04 1.017211893E+02 3.009023086E-01
 -1.442407720E+00 -3.579933192E-02 6.969994570E+04 1.017149840E+02 3.357477168E-01
 -1.325114281E+00 -3.308796746E-02 6.970058760E+04 1.017078465E+02 3.733143812E-01
 -1.216806694E+00 -3.057944986E-02 6.970132664E+04 1.016996322E+02 4.138459288E-01
 -1.116822392E+00 -2.825890611E-02 6.970217777E+04 1.016901733E+02 4.576039999E-01
 -1.024546373E+00 -2.611253531E-02 6.970315838E+04 1.016792746E+02 5.048692142E-01
 -9.394078563E-01 -2.412753481E-02 6.970428868E+04 1.016667092E+02 5.559421426E-01
 -8.608771630E-01 -2.229203141E-02 6.970559212E+04 1.016522135E+02 6.111442908E-01
 -7.884628176E-01 -2.059501737E-02 6.970709594E+04 1.016354816E+02 6.708191100E-01
 -7.217088495E-01 -1.902629064E-02 6.970883172E+04 1.016161579E+02 7.353331609E-01
 -6.601922816E-01 -1.757639925E-02 6.971083610E+04 1.015938303E+02 8.050767513E-01
 -6.035207948E-01 -1.623658922E-02 6.971315153E+04 1.015680203E+02 8.804653794E-01
 -5.513305542E-01 -1.499875593E-02 6.971582718E+04 1.015381737E+02 9.619406246E-01
 -5.032841873E-01 -1.385539856E-02 6.971891991E+04 1.015036505E+02 1.049971651E+00
 -4.590689031E-01 -1.279957734E-02 6.972249523E+04 1.014637028E+02 1.145056663E+00
 -4.183947426E-01 -1.182487338E-02 6.972662878E+04 1.014174709E+02 1.247715303E+00
 -3.809929520E-01 -1.092535093E-02 6.973140824E+04 1.013639720E+02 1.358499492E+00
 -3.466144688E-01 -1.009552169E-02 6.973693476E+04 1.013020600E+02 1.478015770E+00
 -3.150285151E-01 -9.330311329E-03 6.974332407E+04 1.012304134E+02 1.606889581E+00
 -2.860212884E-01 -8.625027707E-03 6.975070896E+04 1.011475137E+02 1.745766476E+00
 -2.593947454E-01 -7.975331027E-03 6.975924256E+04 1.010516067E+02 1.895347538E+00
 -2.349654707E-01 -7.377205635E-03 6.976910065E+04 1.009406731E+02 2.056376850E+00
 -2.125636248E-01 -6.826933527E-03 6.978048453E+04 1.008123898E+02 2.229640835E+00
 -1.920319667E-01 -6.321069494E-03 6.979362489E+04 1.006640823E+02 2.415978097E+00
 -1.732249457E-01 -5.856417934E-03 6.980878607E+04 1.004926690E+02 2.616286256E+00
 -1.560078562E-01 -5.430011328E-03 6.982627093E+04 1.002945977E+02 2.831529130E+00
 -1.402560538E-01 -5.039090409E-03 6.984642663E+04 1.000657658E+02 3.062748078E+00
 -1.258542253E-01 -4.681086019E-03 6.986965142E+04 9.980142803E+01 3.311067791E+00
 -1.126957119E-01 -4.353602676E-03 6.989640231E+04 9.949608769E+01 3.577718470E+00
 -1.006818798E-01 -4.054403825E-03 6.992720548E+04 9.914334048E+01 3.864050690E+00
 -8.972153496E-02 -3.781398748E-03 6.996266980E+04 9.873569299E+01 4.171545566E+00
 -7.973038108E-02 -3.532631046E-03 7.000350036E+04 9.826432521E+01 4.501844274E+00
 -7.063051468E-02 -3.306268621E-03 7.005051866E+04 9.771883759E+01 4.856763604E+00
 -6.234995722E-02 -3.100595041E-03 7.010468434E+04 9.708672939E+01 5.238328823E+00
 -5.482222028E-02 -2.914002072E-03 7.016713455E+04 9.635315389E+01 5.648768311E+00
 -4.798590199E-02 -2.744983232E-03 7.023918378E+04 9.549959421E+01 6.090586339E+00
 -4.178431239E-02 -2.592128258E-03 7.032234837E+04 9.450634532E+01 6.567421965E+00
 -3.616929479E-02 -2.417927349E-03 7.041794024E+04 9.335035494E+01 7.095734076E+00
 -3.110535220E-02 -2.096348320E-03 7.052750440E+04 9.200462596E+01 7.698046050E+00
 -2.652895385E-02 -1.806215953E-03 7.065410081E+04 9.042463846E+01 8.379453709E+00
 -2.239919164E-02 -1.544868361E-03 7.080164225E+04 8.854430375E+01 9.146789739E+00
 -1.867835030E-02 -1.309844009E-03 7.097456979E+04 8.628842530E+01 1.001963110E+01
 -1.533166918E-02 -1.098869054E-03 7.117824160E+04 8.354145651E+01 1.103128409E+01
 -1.232712128E-02 -9.098452821E-04 7.142079750E+04 8.015456030E+01 1.221307563E+01
 -9.635208256E-03 -7.408385926E-04 7.171083910E+04 7.584272858E+01 1.365668446E+01
 -7.228770370E-03 -5.900679758E-04 7.206485173E+04 7.027734341E+01 1.539449766E+01
 -5.082810165E-03 -4.558949037E-04 7.248518724E+04 6.257870539E+01 1.778793164E+01
 -3.174329013E-03 -3.368128239E-04 7.298355536E+04 5.215616191E+01 2.080609461E+01
 -1.482175490E-03 -2.314360213E-04 7.340272881E+04 3.810166916E+01 2.708524182E+01
 1.309555987E-05 -1.384829409E-04 7.354757114E+04 2.989652003E+01 3.181014905E+01
 -4.919121367E+00 4.110405248E-02 6.969575943E+04 1.017586147E+02 1.033096264E-02
 -4.543643807E+00 4.538855853E-02 6.969577182E+04 1.017584426E+02 1.586868995E-02
 -4.195862711E+00 4.936303801E-02 6.969579439E+04 1.017581401E+02 2.862959638E-02
 -3.873789136E+00 5.304964521E-02 6.969581306E+04 1.017578483E+02 4.381416839E-02
 -3.575574174E+00 5.646898448E-02 6.969584304E+04 1.017574624E+02 6.030653782E-02
 -3.298150865E+00 5.298555980E-02 6.969590986E+04 1.017567890E+02 7.795044481E-02
 -3.041087423E+00 4.862912620E-02 6.969601072E+04 1.017557836E+02 9.677753496E-02
 -2.803196461E+00 4.460322470E-02 6.969613115E+04 1.017545591E+02 1.168442624E-01
 -2.583090266E+00 4.088382878E-02 6.969627437E+04 1.017530733E+02 1.382501834E-01
 -2.379479408E+00 3.744861764E-02 6.969644592E+04 1.017512709E+02 1.611273838E-01
 -2.191165893E+00 3.427685769E-02 6.969664895E+04 1.017491147E+02 1.856189345E-01
 -2.017036786E+00 3.134929179E-02 6.969688780E+04 1.017465546E+02 2.118790781E-01
 -1.856058275E+00 2.864803583E-02 6.969716828E+04 1.017435266E+02 2.400773524E-01
 -1.707270145E+00 2.615648211E-02 6.969749698E+04 1.017399577E+02 2.703984338E-01
 -1.569780626E+00 2.385920920E-02 6.969788152E+04 1.017357629E+02 3.030422638E-01
 -1.442761603E+00 2.174189778E-02 6.969833087E+04 1.017308419E+02 3.382251315E-01
 -1.325444155E+00 1.979125218E-02 6.969885557E+04 1.017250770E+02 3.761806162E-01
 -1.217114405E+00 1.799492709E-02 6.969946789E+04 1.017183309E+02 4.171604923E-01
 -1.117109647E+00 1.634145940E-02 6.970018220E+04 1.017104427E+02 4.614357883E-01
 -1.024814754E+00 1.482020454E-02 6.970101527E+04 1.017012244E+02 5.092979185E-01
 -9.396588293E-01 1.342127733E-02 6.970198667E+04 1.016904563E+02 5.610598536E-01
 -8.611120842E-01 1.213549686E-02 6.970311922E+04 1.016778823E+02 6.170573501E-01
 -7.886829427E-01 1.095433525E-02 6.970443950E+04 1.016632037E+02 6.776501820E-01
 -7.219153406E-01 9.869870164E-03 6.970597844E+04 1.016460723E+02 7.432233971E-01
 -6.603862144E-01 8.874740654E-03 6.970777200E+04 1.016260832E+02 8.141886962E-01
 -6.037031645E-01 7.962106367E-03 6.970986199E+04 1.016027653E+02 8.909855621E-01
 -5.515022815E-01 7.125609802E-03 6.971229689E+04 1.015755715E+02 9.740831835E-01
 -5.034461239E-01 6.359341529E-03 6.971513285E+04 1.015438670E+02 1.063981682E+00
 -4.592218364E-01 5.657808177E-03 6.971843491E+04 1.015069181E+02 1.161212432E+00
 -4.185394009E-01 5.015903068E-03 6.972227818E+04 1.014638677E+02 1.266344171E+00
 -3.811300082E-01 4.428879338E-03 6.972674914E+04 1.014137282E+02 1.379969948E+00
 -3.467445448E-01 3.892325397E-03 6.973194801E+04 1.013553697E+02 1.502721734E+00
 -3.151521852E-01 3.402142588E-03 6.973799060E+04 1.012874792E+02 1.635301373E+00
 -2.861390830E-01 2.954524863E-03 6.974500919E+04 1.012085416E+02 1.778432800E+00
 -2.595071540E-01 2.545940324E-03 6.975315549E+04 1.011168119E+02 1.932868114E+00
 -2.350729447E-01 2.173114434E-03 6.976260433E+04 1.010102768E+02 2.099429750E+00
 -2.126665804E-01 1.833014720E-03 6.977355622E+04 1.008866192E+02 2.278995468E+00
 -1.921307875E-01 1.522836750E-03 6.978624064E+04 1.007431738E+02 2.472500914E+00
 -1.733199848E-01 1.239991206E-03 6.980092043E+04 1.005768702E+02 2.680952532E+00
 -1.560994387E-01 9.820918205E-04 6.981789666E+04 1.003841684E+02 2.905437175E+00
 -1.403444784E-01 7.469440102E-04 6.983751436E+04 1.001609830E+02 3.147136132E+00
 -1.259397666E-01 5.325340132E-04 6.986016909E+04 9.990258642E+01 3.407331677E+00
 -1.127786223E-01 3.370183806E-04 6.988631468E+04 9.960350463E+01 3.687433565E+00
 -1.007623906E-01 1.587136907E-04 6.991647340E+04 9.925736638E+01 3.989001133E+00
 -8.979985858E-02 -3.913605642E-06 6.995124903E+04 9.885671717E+01 4.313759068E+00
 -7.980671222E-02 -1.522572613E-04 6.999134049E+04 9.839278214E+01 4.663638398E+00
 -7.070503184E-02 -2.875812741E-04 7.003756195E+04 9.785521820E+01 5.040800026E+00
 -6.242282394E-02 -4.110298528E-04 7.009086359E+04 9.723159369E+01 5.447689401E+00
 -5.489358641E-02 -5.236372405E-04 7.015237152E+04 9.650714910E+01 5.887050359E+00
 -4.805590483E-02 -6.263373075E-04 7.022338659E+04 9.566347260E+01 6.362048654E+00
 -4.185307772E-02 -7.199729095E-04 7.030541620E+04 9.468081467E+01 6.876931517E+00
 -3.623558415E-02 -7.732262691E-04 7.039977572E+04 9.353619911E+01 7.447683898E+00
 -3.116313584E-02 -6.737412961E-04 7.050798924E+04 9.220271215E+01 8.096120460E+00
 -2.657904928E-02 -5.843189700E-04 7.063307755E+04 9.063623711E+01 8.828674700E+00
 -2.244234784E-02 -5.040919854E-04 7.077888357E+04 8.877097825E+01 9.654742567E+00
 -1.871525314E-02 -4.322533136E-04 7.094982045E+04 8.653262241E+01 1.059533758E+01
 -1.536294638E-02 -3.680539714E-04 7.115109517E+04 8.380519940E+01 1.168689126E+01
 -1.235334699E-02 -3.108006464E-04 7.139091019E+04 8.044284368E+01 1.296258973E+01
 -9.656907316E-03 -2.598531727E-04 7.167728448E+04 7.615744164E+01 1.452244492E+01
 -7.246422193E-03 -2.146218506E-04 7.202737935E+04 7.062972885E+01 1.640184986E+01
 -5.096852351E-03 -1.745645711E-04 7.244105756E+04 6.296945574E+01 1.898333615E+01
 -3.185160680E-03 -1.391835134E-04 7.293368621E+04 5.261075493E+01 2.222985443E+01
 -1.490160345E-03 -1.080205476E-04 7.334262184E+04 3.863264076E+01 2.870419546E+01
 7.626351982E-06 -8.064715534E-05 7.347795490E+04 3.045251086E+01 3.350845513E+01
 -4.913313371E+00 2.489252871E-01 6.969509278E+04 1.017612598E+02 1.041108301E-02
 -4.537948630E+00 2.350094152E-01 6.969508130E+04 1.017614622E+02 1.596474029E-02
 -4.190272054E+00 2.221260168E-01 6.969506066E+04 1.017618971E+02 2.876708993E-02
 -3.868295293E+00 2.102008486E-01 6.969504500E+04 1.017623094E+02 4.401105551E-02
 -3.570169990E+00 1.991649126E-01 6.969504084E+04 1.017626166E+02 6.057568587E-02
 -3.293121477E+00 1.842148934E-01 6.969506283E+04 1.017626938E+02 7.830346475E-02
 -3.036454539E+00 1.696462009E-01 6.969511036E+04 1.017624965E+02 9.722585283E-02
 -2.798930518E+00 1.561697136E-01 6.969517376E+04 1.017621018E+02 1.173971131E-01
 -2.579163840E+00 1.437062745E-01 6.969525548E+04 1.017614778E+02 1.389192910E-01
 -2.375867062E+00 1.321823370E-01 6.969535995E+04 1.017605814E+02 1.619279655E-01
 -2.187844036E+00 1.215295741E-01 6.969549008E+04 1.017593799E+02 1.865695491E-01
 -2.013983545E+00 1.116845144E-01 6.969564976E+04 1.017578298E+02 2.130019987E-01
 -1.853253371E+00 1.025882031E-01 6.969584420E+04 1.017558746E+02 2.413990562E-01
 -1.704694776E+00 9.418588540E-02 6.969607942E+04 1.017534483E+02 2.719501262E-01
 -1.567417367E+00 8.642671213E-02 6.969636247E+04 1.017504728E+02 3.048605136E-01
 -1.440594306E+00 7.926346503E-02 6.969670176E+04 1.017468550E+02 3.403526449E-01
 -1.323457858E+00 7.265230111E-02 6.969710719E+04 1.017424847E+02 3.786671641E-01
 -1.215295244E+00 6.655251444E-02 6.969759044E+04 1.017372316E+02 4.200639824E-01
 -1.115444784E+00 6.092631427E-02 6.969816521E+04 1.017309426E+02 4.648234936E-01
 -1.023292298E+00 5.573861855E-02 6.969884763E+04 1.017234373E+02 5.132478879E-01
 -9.382677683E-01 5.095686162E-02 6.969965656E+04 1.017145041E+02 5.656625190E-01
 -8.598422253E-01 4.655081534E-02 6.970061414E+04 1.017038946E+02 6.224173292E-01
 -7.875248507E-01 4.249242260E-02 6.970174622E+04 1.016913182E+02 6.838883298E-01
 -7.208602839E-01 3.875564254E-02 6.970308300E+04 1.016764350E+02 7.504791558E-01
 -6.594261140E-01 3.531630673E-02 6.970465972E+04 1.016588481E+02 8.226226396E-01
 -6.028305468E-01 3.215198546E-02 6.970651740E+04 1.016380947E+02 9.007824483E-01
 -5.507102344E-01 2.924186366E-02 6.970870377E+04 1.016136356E+02 9.854549886E-01
 -5.027282558E-01 2.656662580E-02 6.971127423E+04 1.015848445E+02 1.077170822E+00
 -4.585722386E-01 2.410834910E-02 6.971429301E+04 1.015509933E+02 1.176496538E+00
 -4.179526119E-01 2.185040470E-02 6.971783458E+04 1.015112394E+02 1.284037510E+00
 -3.806009812E-01 1.977736609E-02 6.972198482E+04 1.014646007E+02 1.400443059E+00
 -3.462686173E-01 1.787492449E-02 6.972684257E+04 1.014099429E+02 1.526390140E+00
 -3.147250506E-01 1.612981058E-02 6.973252247E+04 1.013459673E+02 1.662605664E+00
 -2.857567644E-01 1.452972218E-02 6.973915683E+04 1.012711723E+02 1.809900780E+00
 -2.591659800E-01 1.306325751E-02 6.974689658E+04 1.011838202E+02 1.969113716E+00