TITLE     = "fluent22.1.0  build-id: 10213"
VARIABLES = "X"
"Y"
"Pressure"
"X Velocity"
"Y Velocity"
DATASETAUXDATA Common.DensityVar="23"
DATASETAUXDATA Common.PressureVar="3"
DATASETAUXDATA Common.TemperatureVar="12"
DATASETAUXDATA Common.TurbulentDynamicViscosityVar="17"
DATASETAUXDATA Common.UVar="5"
DATASETAUXDATA Common.VectorVarsAreVelocity="TRUE"
DATASETAUXDATA Common.ViscosityVar="25"
DATASETAUXDATA Common.VVar="7"
ZONE T="fluid"
 STRANDID=1, SOLUTIONTIME=0.7575
 Nodes=10240, Elements=10080, ZONETYPE=FEQuadrilateral
 DATAPACKING=POINT
 DT=(DOUBLE DOUBLE DOUBLE DOUBLE DOUBLE )
 -4.856290020E+00 -7.872354469E-01 6.969843959E+04 1.017481160E+02 8.454567514E-03
 -4.486959112E+00 -7.103793222E-01 6.969854924E+04 1.017464302E+02 1.396633698E-02
 -4.884823481E+00 -5.813004056E-01 6.969777921E+04 1.017506665E+02 9.187337011E-03
 -4.512972755E+00 -5.224992891E-01 6.969786329E+04 1.017493659E+02 1.473292758E-02
 -4.144871147E+00 -6.391859516E-01 6.969874443E+04 1.017431690E+02 2.671624946E-02
 -4.168550875E+00 -4.680292487E-01 6.969801386E+04 1.017468493E+02 2.753988442E-02
 -3.828069765E+00 -5.732488850E-01 6.969889956E+04 1.017400458E+02 4.193709010E-02
 -3.849588124E+00 -4.175794185E-01 6.969813375E+04 1.017444355E+02 4.280852691E-02
 -3.534736339E+00 -5.121902097E-01 6.969906884E+04 1.017368450E+02 5.844799102E-02
 -3.554253465E+00 -3.708607920E-01 6.969826652E+04 1.017419475E+02 5.938310179E-02
 -3.260663845E+00 -4.699826250E-01 6.969931546E+04 1.017331548E+02 7.600383024E-02
 -3.278620656E+00 -3.400102746E-01 6.969846786E+04 1.017390134E+02 7.704526048E-02
 -3.006504483E+00 -4.336450309E-01 6.969962686E+04 1.017289340E+02 9.462680648E-02
 -3.023066188E+00 -3.137864408E-01 6.969872756E+04 1.017355899E+02 9.581458373E-02
 -2.771300950E+00 -4.000119212E-01 6.969997281E+04 1.017244060E+02 1.144351448E-01
 -2.786571613E+00 -2.895127772E-01 6.969901793E+04 1.017318845E+02 1.157897622E-01
 -2.553681219E+00 -3.688876501E-01 6.970035974E+04 1.017194887E+02 1.355330701E-01
 -2.567757370E+00 -2.670482349E-01 6.969934468E+04 1.017278225E+02 1.370741330E-01
 -2.352370434E+00 -3.400904236E-01 6.970079626E+04 1.017140907E+02 1.580391271E-01
 -2.365341603E+00 -2.462617498E-01 6.969971604E+04 1.017233177E+02 1.597900704E-01
 -2.166184140E+00 -3.134513337E-01 6.970128652E+04 1.017081550E+02 1.820869022E-01
 -2.178133355E+00 -2.270315471E-01 6.970013575E+04 1.017183185E+02 1.840741773E-01
 -1.994021982E+00 -2.888134596E-01 6.970183690E+04 1.017016037E+02 2.078211118E-01
 -2.005026229E+00 -2.092444929E-01 6.970060963E+04 1.017127541E+02 2.100743722E-01
 -1.834861833E+00 -2.660310323E-01 6.970245537E+04 1.016943457E+02 2.353984979E-01
 -1.844992486E+00 -1.927954925E-01 6.970114520E+04 1.017065391E+02 2.379510941E-01
 -1.687754326E+00 -2.449686554E-01 6.970315048E+04 1.016862822E+02 2.649881557E-01
 -1.697077549E+00 -1.775869284E-01 6.970175057E+04 1.016995809E+02 2.678778599E-01
 -1.551817771E+00 -2.255005810E-01 6.970393187E+04 1.016773022E+02 2.967721042E-01
 -1.560394884E+00 -1.635281392E-01 6.970243490E+04 1.016917747E+02 3.000417501E-01
 -1.426233410E+00 -2.075100352E-01 6.970481063E+04 1.016672792E+02 3.309455597E-01
 -1.434121242E+00 -1.505349329E-01 6.970320880E+04 1.016830000E+02 3.346439336E-01
 -1.310241011E+00 -1.908885905E-01 6.970579938E+04 1.016560694E+02 3.677173850E-01
 -1.317492216E+00 -1.385291354E-01 6.970408442E+04 1.016731193E+02 3.719001886E-01
 -1.203134763E+00 -1.755355818E-01 6.970691256E+04 1.016435093E+02 4.073106238E-01
 -1.209798119E+00 -1.274381693E-01 6.970507573E+04 1.016619751E+02 4.120415083E-01
 -1.104259448E+00 -1.613575626E-01 6.970816671E+04 1.016294117E+02 4.499629327E-01
 -1.110380139E+00 -1.171946629E-01 6.970619878E+04 1.016493861E+02 4.553147546E-01
 -1.013006890E+00 -1.482677993E-01 6.970958081E+04 1.016135625E+02 4.959269503E-01
 -1.018626761E+00 -1.077360852E-01 6.970747209E+04 1.016351440E+02 5.019832570E-01
 -9.288126410E-01 -1.361858001E-01 6.971117666E+04 1.015957159E+02 5.454711143E-01
 -9.339704364E-01 -9.900440716E-02 6.970891697E+04 1.016190087E+02 5.523274459E-01
 -8.511528985E-01 -1.250368773E-01 6.971297929E+04 1.015755898E+02 5.988798638E-01
 -8.558844893E-01 -9.094578613E-02 6.971055802E+04 1.016007035E+02 6.066452965E-01
 -7.795416400E-01 -1.147517388E-01 6.971501753E+04 1.015528601E+02 6.564531084E-01
 -7.838802292E-01 -8.351027193E-02 6.971242359E+04 1.015799093E+02 6.652532420E-01
 -7.135279535E-01 -1.052661093E-01 6.971732456E+04 1.015271544E+02 7.185081877E-01
 -7.175042689E-01 -7.665153352E-02 6.971454639E+04 1.015562577E+02 7.284867965E-01
 -6.526935548E-01 -9.652037631E-02 6.971993841E+04 1.014980402E+02 7.853795804E-01
 -6.563360284E-01 -7.032660441E-02 6.971696414E+04 1.015293248E+02 7.966993378E-01
 -5.966504774E-01 -8.845926155E-02 6.972290299E+04 1.014650251E+02 8.574158833E-01
 -5.999854115E-01 -6.449564559E-02 6.971972042E+04 1.014986195E+02 8.702662810E-01
 -5.450389229E-01 -8.103151459E-02 6.972626888E+04 1.014275386E+02 9.349830722E-01
 -5.480906452E-01 -5.912172472E-02 6.972286536E+04 1.014635735E+02 9.495808754E-01
 -4.975252619E-01 -7.418962758E-02 6.973009428E+04 1.013849251E+02 1.018466446E+00
 -5.003162686E-01 -5.417061042E-02 6.972645660E+04 1.014235323E+02 1.035053627E+00
 -4.538001740E-01 -6.788956958E-02 6.973444634E+04 1.013364306E+02 1.108272390E+00
 -4.563512634E-01 -4.961058058E-02 6.973056095E+04 1.013777489E+02 1.127118657E+00
 -4.135769176E-01 -6.209053895E-02 6.973940203E+04 1.012811825E+02 1.204818281E+00
 -4.159073140E-01 -4.541224351E-02 6.973525555E+04 1.013253554E+02 1.226240619E+00
 -3.765897209E-01 -5.675473268E-02 6.974504966E+04 1.012181807E+02 1.308532772E+00
 -3.787171898E-01 -4.154837135E-02 6.974062860E+04 1.012653473E+02 1.332898677E+00
 -3.425922857E-01 -5.184713125E-02 6.975149106E+04 1.011462704E+02 1.419867863E+00
 -3.445332402E-01 -3.799374447E-02 6.974678136E+04 1.011965747E+02 1.447583631E+00
 -3.113563953E-01 -4.733529821E-02 6.975884338E+04 1.010641217E+02 1.539292865E+00
 -3.131259956E-01 -3.472500638E-02 6.975383069E+04 1.011177084E+02 1.570818402E+00
 -2.826706206E-01 -4.318919313E-02 6.976724096E+04 1.009702048E+02 1.667292023E+00
 -2.842828660E-01 -3.172052830E-02 6.976191094E+04 1.010272176E+02 1.703150775E+00
 -2.563391170E-01 -3.938099737E-02 6.977683801E+04 1.008627592E+02 1.804367365E+00
 -2.578069313E-01 -2.896028275E-02 6.977117611E+04 1.009233417E+02 1.845150654E+00
 -2.321805057E-01 -3.588495150E-02 6.978781145E+04 1.007397585E+02 1.951039980E+00
 -2.335158164E-01 -2.642572566E-02 6.978180287E+04 1.008040541E+02 1.997414540E+00
 -2.100268333E-01 -3.267720395E-02 6.980036420E+04 1.005988701E+02 2.107850797E+00
 -2.112406456E-01 -2.409968639E-02 6.979399386E+04 1.006670217E+02 2.160568311E+00
 -1.897226057E-01 -2.973566998E-02 6.981472888E+04 1.004374078E+02 2.275362510E+00
 -1.908250703E-01 -2.196626532E-02 6.980798138E+04 1.005095583E+02 2.335269515E+00
 -1.711238888E-01 -2.703990049E-02 6.983117220E+04 1.002522764E+02 2.454162554E+00
 -1.721243658E-01 -2.001073849E-02 6.982403162E+04 1.003285684E+02 2.522211353E+00
 -1.540974740E-01 -2.457096013E-02 6.984999998E+04 1.000399054E+02 2.644864965E+00
 -1.550045915E-01 -1.821946902E-02 6.984244981E+04 1.001204828E+02 2.722126388E+00
 -1.385201017E-01 -2.231131417E-02 6.987156314E+04 9.979616992E+01 2.848117633E+00
 -1.393418105E-01 -1.657982499E-02 6.986358605E+04 9.988117683E+01 2.935796506E+00
 -1.242777402E-01 -2.024472370E-02 6.989626442E+04 9.951629694E+01 3.064595406E+00
 -1.250213645E-01 -1.508010338E-02 6.988784220E+04 9.960588058E+01 3.164047228E+00
 -1.112649161E-01 -1.835614865E-02 6.992456642E+04 9.919475601E+01 3.295013357E+00
 -1.119372004E-01 -1.370945984E-02 6.991567961E+04 9.928906625E+01 3.407765502E+00
 -9.938409119E-02 -1.663165839E-02 6.995700226E+04 9.882510099E+01 3.540132450E+00
 -9.999124396E-02 -1.245784407E-02 6.994762995E+04 9.892428727E+01 3.667910292E+00
 -8.854508475E-02 -1.505834915E-02 6.999418936E+04 9.839978677E+01 3.800747578E+00
 -8.909281913E-02 -1.131594031E-02 6.998430895E+04 9.850399962E+01 3.945503759E+00
 -7.866453653E-02 -1.362426824E-02 7.003684354E+04 9.790992506E+01 4.077681812E+00
 -7.915810766E-02 -1.027511286E-02 7.002642971E+04 9.801932836E+01 4.241638691E+00
 -6.966540798E-02 -1.231834416E-02 7.008579838E+04 9.734504081E+01 4.371739575E+00
 -7.010964794E-02 -9.327356074E-03 7.007482299E+04 9.745980773E+01 4.557471285E+00
 -6.147651930E-02 -1.113032267E-02 7.014202460E+04 9.669260886E+01 4.683687889E+00
 -6.187586935E-02 -8.465248777E-03 7.013045999E+04 9.681286523E+01 4.894211385E+00
 -5.403211956E-02 -1.005070805E-02 7.020667169E+04 9.593774156E+01 5.014301564E+00
 -5.439066006E-02 -7.681912459E-03 7.019449041E+04 9.606356633E+01 5.253100235E+00
 -4.727148755E-02 -9.070708635E-03 7.028107151E+04 9.506193667E+01 5.364256024E+00
 -4.759296574E-02 -6.970972855E-03 7.026824344E+04 9.519335738E+01 5.635352254E+00
 -4.113856143E-02 -8.182187338E-03 7.036676506E+04 9.404524979E+01 5.735706225E+00
 -4.142641706E-02 -6.326524926E-03 7.035324741E+04 9.418244504E+01 6.043676369E+00
 -3.558981146E-02 -7.329143444E-03 7.046515026E+04 9.286363544E+01 6.146807443E+00
 -3.584585424E-02 -5.698712953E-03 7.045084411E+04 9.300731808E+01 6.495951281E+00
 -3.060464584E-02 -6.344416586E-03 7.057787469E+04 9.148920394E+01 6.621633190E+00
 -3.082562800E-02 -4.934098132E-03 7.056264221E+04 9.164047053E+01 7.015835434E+00
 -2.609944639E-02 -5.455003903E-03 7.070805039E+04 8.987690962E+01 7.160750956E+00
 -2.628874148E-02 -4.243599306E-03 7.069174937E+04 9.003690841E+01 7.605261060E+00
 -2.203394038E-02 -4.652881283E-03 7.085966963E+04 8.796091403E+01 7.764249576E+00
 -2.219463906E-02 -3.620972378E-03 7.084213989E+04 8.813052646E+01 8.266450536E+00
 -1.837099819E-02 -3.930643586E-03 7.103723643E+04 8.566417211E+01 8.447207300E+00
 -1.850593035E-02 -3.060453169E-03 7.101830163E+04 8.584482832E+01 9.016102822E+00
 -1.507639887E-02 -3.281460857E-03 7.124643628E+04 8.287202105E+01 9.234658586E+00
 -1.518815408E-02 -2.556724001E-03 7.122581069E+04 8.306488135E+01 9.881572444E+00
 -1.211861262E-02 -2.699037359E-03 7.149532452E+04 7.942930112E+01 1.015120508E+01
 -1.220955903E-02 -2.104882341E-03 7.147274861E+04 7.963783485E+01 1.089001697E+01
 -9.468599050E-03 -2.177573224E-03 7.179366317E+04 7.505874741E+01 1.126624990E+01
 -9.540900873E-03 -1.700411361E-03 7.176852064E+04 7.528258377E+01 1.211680910E+01
 -7.099620085E-03 -1.711728497E-03 7.215652309E+04 6.940999230E+01 1.260229516E+01
 -7.155253760E-03 -1.339152274E-03 7.212873900E+04 6.965763730E+01 1.358612697E+01
 -4.987066422E-03 -1.296589403E-03 7.259191006E+04 6.163574239E+01 1.447106445E+01
 -5.027835536E-03 -1.017278285E-03 7.255938407E+04 6.189626062E+01 1.562918204E+01
 -3.108296610E-03 -9.276363388E-04 7.310249798E+04 5.110874552E+01 1.683811393E+01
 -3.135845694E-03 -7.312697255E-04 7.306661077E+04 5.139378374E+01 1.822686657E+01
 -1.442487779E-03 -6.007129413E-04 7.354712636E+04 3.678427564E+01 2.269115293E+01
 -1.458315064E-03 -4.778896980E-04 7.350165697E+04 3.715151433E+01 2.424003528E+01
 2.950318352E-05 -3.119902977E-04 7.371643964E+04 2.839561754E+01 2.733253205E+01
 2.403397564E-05 -2.541545121E-04 7.366109060E+04 2.881535056E+01 2.891400462E+01
 -4.904860300E+00 -3.743658139E-01 6.969710927E+04 1.017532804E+02 9.806573574E-03
 -4.531141119E+00 -3.336965185E-01 6.969716941E+04 1.017523549E+02 1.538028802E-02
 -4.184988635E+00 -2.960209294E-01 6.969727779E+04 1.017505727E+02 2.823248970E-02
 -3.864423232E+00 -2.611241908E-01 6.969736447E+04 1.017488670E+02 4.353364898E-02
 -3.567604665E+00 -2.288065688E-01 6.969746292E+04 1.017470866E+02 6.014838017E-02
 -3.290890247E+00 -2.093702502E-01 6.969761960E+04 1.017449094E+02 7.789065233E-02
 -3.034383951E+00 -1.933123483E-01 6.969782693E+04 1.017422899E+02 9.678385897E-02
 -2.797008549E+00 -1.784464083E-01 6.969806122E+04 1.017394084E+02 1.169041417E-01
 -2.577379340E+00 -1.646862600E-01 6.969832735E+04 1.017362006E+02 1.383523340E-01
 -2.374209693E+00 -1.519518316E-01 6.969863283E+04 1.017325892E+02 1.612550369E-01
 -2.186304214E+00 -1.401687247E-01 6.969898119E+04 1.017285278E+02 1.857512320E-01
 -2.012552383E+00 -1.292678187E-01 6.969937772E+04 1.017239530E+02 2.119912008E-01
 -1.851922633E+00 -1.191849028E-01 6.969982941E+04 1.017187863E+02 2.401391135E-01
 -1.703456829E+00 -1.098603336E-01 6.970034389E+04 1.017129415E+02 2.703730481E-01
 -1.566265138E+00 -1.012387168E-01 6.970092981E+04 1.017063204E+02 3.028852854E-01
 -1.439521239E+00 -9.326861055E-02 6.970159728E+04 1.016988089E+02 3.378830426E-01
 -1.322457883E+00 -8.590224979E-02 6.970235794E+04 1.016902759E+02 3.755891329E-01
 -1.214362736E+00 -7.909528989E-02 6.970322524E+04 1.016805701E+02 4.162426711E-01
 -1.114574533E+00 -7.280656778E-02 6.970421469E+04 1.016695165E+02 4.600998519E-01
 -1.022479480E+00 -6.699787991E-02 6.970534429E+04 1.016569131E+02 5.074347177E-01
 -9.375079163E-01 -6.163377557E-02 6.970663482E+04 1.016425259E+02 5.585400126E-01
 -8.591312037E-01 -5.668136450E-02 6.970811033E+04 1.016260844E+02 6.137280287E-01
 -7.868588314E-01 -5.211013781E-02 6.970979866E+04 1.016072753E+02 6.733312702E-01
 -7.202357239E-01 -4.789180129E-02 6.971173199E+04 1.015857365E+02 7.377032189E-01
 -6.588397346E-01 -4.400012008E-02 6.971394752E+04 1.015610486E+02 8.072193975E-01
 -6.022793146E-01 -4.041077400E-02 6.971648833E+04 1.015327265E+02 8.822774523E-01
 -5.501913433E-01 -3.710122267E-02 6.971940416E+04 1.015002106E+02 9.632994522E-01
 -5.022391106E-01 -3.405057976E-02 6.972275225E+04 1.014628484E+02 1.050731504E+00
 -4.581104398E-01 -3.123949561E-02 6.972659861E+04 1.014198904E+02 1.145038518E+00
 -4.175159415E-01 -2.865004766E-02 6.973101979E+04 1.013704791E+02 1.246711586E+00
 -3.801873895E-01 -2.626563810E-02 6.973610411E+04 1.013136153E+02 1.356285950E+00
 -3.458762107E-01 -2.407089821E-02 6.974195265E+04 1.012481480E+02 1.474314003E+00
 -3.143520807E-01 -2.205159890E-02 6.974868141E+04 1.011727546E+02 1.601362104E+00
 -2.854016173E-01 -2.019456704E-02 6.975642422E+04 1.010859071E+02 1.738040204E+00
 -2.588271665E-01 -1.848760728E-02 6.976533481E+04 1.009858461E+02 1.884992580E+00
 -2.344456736E-01 -1.691942887E-02 6.977558934E+04 1.008705476E+02 2.042895000E+00
 -2.120876332E-01 -1.547957737E-02 6.978738984E+04 1.007376818E+02 2.212461588E+00
 -1.915961138E-01 -1.415837097E-02 6.980096785E+04 1.005845658E+02 2.394449869E+00
 -1.728258511E-01 -1.294684111E-02 6.981658870E+04 1.004081086E+02 2.589665640E+00
 -1.556424048E-01 -1.183667743E-02 6.983455650E+04 1.002047473E+02 2.798968847E+00
 -1.399213758E-01 -1.082017668E-02 6.985521996E+04 9.997036394E+01 3.023284415E+00
 -1.255476781E-01 -9.890195616E-03 6.987897927E+04 9.970019792E+01 3.263603328E+00
 -1.124148628E-01 -9.040107602E-03 6.990629374E+04 9.938873201E+01 3.521002436E+00
 -1.004244902E-01 -8.263762890E-03 6.993769245E+04 9.902953168E+01 3.796658080E+00
 -8.948554574E-02 -7.555452294E-03 6.997378811E+04 9.861506901E+01 4.091848181E+00
 -7.951389879E-02 -6.909874148E-03 7.001529025E+04 9.813648518E+01 4.407968669E+00
 -7.043179896E-02 -6.322104281E-03 7.006302559E+04 9.758333365E+01 4.746538472E+00
 -6.216740895E-02 -5.787568868E-03 7.011796038E+04 9.694305756E+01 5.109222884E+00
 -5.465437070E-02 -5.302019773E-03 7.018123917E+04 9.620073931E+01 5.497821117E+00
 -4.783140258E-02 -4.861512118E-03 7.025418494E+04 9.533780670E+01 5.914275900E+00
 -4.164192552E-02 -4.462383977E-03 7.033831966E+04 9.433451861E+01 6.361824965E+00
 -3.603923686E-02 -4.060943902E-03 7.043496203E+04 9.316763819E+01 6.857106747E+00
 -3.099271893E-02 -3.517463096E-03 7.054567567E+04 9.181007096E+01 7.423350413E+00
 -2.643207022E-02 -3.026803404E-03 7.067354102E+04 9.021704499E+01 8.064894933E+00
 -2.231652301E-02 -2.584508485E-03 7.082251113E+04 8.832221342E+01 8.786404615E+00
 -1.860849141E-02 -2.186462325E-03 7.099705064E+04 8.604974968E+01 9.606172975E+00
 -1.527333397E-02 -1.828866200E-03 7.120260905E+04 8.328412762E+01 1.055488027E+01
 -1.227913348E-02 -1.508216962E-03 7.144730171E+04 7.987511402E+01 1.166229760E+01
 -9.596492744E-03 -1.221286562E-03 7.174005512E+04 7.553794184E+01 1.301304351E+01
 -7.198345143E-03 -9.651027012E-04 7.209704321E+04 6.994168640E+01 1.463298890E+01
 -5.059778938E-03 -7.369304952E-04 7.252190130E+04 6.220153041E+01 1.687181715E+01
 -3.157874388E-03 -5.342547780E-04 7.302457495E+04 5.174079516E+01 1.970450723E+01
 -1.471552640E-03 -3.547623490E-04 7.344935800E+04 3.757196876E+01 2.589084511E+01
 1.856476775E-05 -1.963187265E-04 7.359866355E+04 2.926714060E+01 3.061867347E+01
 -4.916318661E+00 -1.667794339E-01 6.969643781E+04 1.017559293E+02 1.021775978E-02
 -4.541388655E+00 -1.442921201E-01 6.969647396E+04 1.017553818E+02 1.581293208E-02
 -4.194114689E+00 -1.234574168E-01 6.969653933E+04 1.017543417E+02 2.871093697E-02
 -3.872510724E+00 -1.041567541E-01 6.969659182E+04 1.017533451E+02 4.406617749E-02
 -3.574730554E+00 -8.627991711E-02 6.969665569E+04 1.017522640E+02 6.074798738E-02
 -3.297417890E+00 -7.829533580E-02 6.969676743E+04 1.017508370E+02 7.858443454E-02
 -3.040407308E+00 -7.243739319E-02 6.969692188E+04 1.017490194E+02 9.759991750E-02
 -2.802565242E+00 -6.701066310E-02 6.969709962E+04 1.017469611E+02 1.178572480E-01
 -2.582504268E+00 -6.198403828E-02 6.969730464E+04 1.017446091E+02 1.394571984E-01
 -2.378935223E+00 -5.732861035E-02 6.969754358E+04 1.017418962E+02 1.625306859E-01
 -2.190660360E+00 -5.301751635E-02 6.969781978E+04 1.017387808E+02 1.872200860E-01
 -2.016566978E+00 -4.902579618E-02 6.969813803E+04 1.017352061E+02 2.136789834E-01
 -1.855621477E+00 -4.533026013E-02 6.969850476E+04 1.017311008E+02 2.420756183E-01
 -1.706863841E+00 -4.190936594E-02 6.969892709E+04 1.017263849E+02 2.725927580E-01
 -1.569402485E+00 -3.874310442E-02 6.969941316E+04 1.017209666E+02 3.054279239E-01
 -1.442409465E+00 -3.581289324E-02 6.969997254E+04 1.017147386E+02 3.407943659E-01
 -1.325116020E+00 -3.310147825E-02 6.970061633E+04 1.017075762E+02 3.789218875E-01
 -1.216808418E+00 -3.059284165E-02 6.970135741E+04 1.016993348E+02 4.200576528E-01
 -1.116824092E+00 -2.827211671E-02 6.970221074E+04 1.016898462E+02 4.644671179E-01
 -1.024548043E+00 -2.612550844E-02 6.970319372E+04 1.016789149E+02 5.124350063E-01
 -9.394094893E-01 -2.414021974E-02 6.970432655E+04 1.016663140E+02 5.642663072E-01
 -8.608787533E-01 -2.230438267E-02 6.970563270E+04 1.016517795E+02 6.202872682E-01
 -7.884643600E-01 -2.060699453E-02 6.970713941E+04 1.016350051E+02 6.808464245E-01
 -7.217103393E-01 -1.903785808E-02 6.970887825E+04 1.016156351E+02 7.463157610E-01
 -6.601937150E-01 -1.758752599E-02 6.971088586E+04 1.015932569E+02 8.170913497E-01
 -6.035221683E-01 -1.624724878E-02 6.971320468E+04 1.015673917E+02 8.935949162E-01
 -5.513318650E-01 -1.500892621E-02 6.971588387E+04 1.015374849E+02 9.762751104E-01
 -5.032854330E-01 -1.386506172E-02 6.971898024E+04 1.015028962E+02 1.065607307E+00
 -4.590700819E-01 -1.280871973E-02 6.972255935E+04 1.014628781E+02 1.162098088E+00
 -4.183958534E-01 -1.183348544E-02 6.972669680E+04 1.014165707E+02 1.266276037E+00
 -3.809939940E-01 -1.093342708E-02 6.973148007E+04 1.013629871E+02 1.378699111E+00
 -3.466154417E-01 -1.010306026E-02 6.973701034E+04 1.013009820E+02 1.499983321E+00
 -3.150294191E-01 -9.337314396E-03 6.974340335E+04 1.012292359E+02 1.630765886E+00
 -2.860221243E-01 -8.631500991E-03 6.975079178E+04 1.011462285E+02 1.771702507E+00
 -2.593955145E-01 -7.981283705E-03 6.975932861E+04 1.010502052E+02 1.923504724E+00
 -2.349661744E-01 -7.382650146E-03 6.976918953E+04 1.009391456E+02 2.086928930E+00
 -2.125642650E-01 -6.831885339E-03 6.978057572E+04 1.008107254E+02 2.262774951E+00
 -1.920325459E-01 -6.325546837E-03 6.979371772E+04 1.006622692E+02 2.451895604E+00
 -1.732254664E-01 -5.860441502E-03 6.980887969E+04 1.004906941E+02 2.655204015E+00
 -1.560083214E-01 -5.433603948E-03 6.982636428E+04 1.002924463E+02 2.873681018E+00
 -1.402564665E-01 -5.042276683E-03 6.984651841E+04 1.000634215E+02 3.108387021E+00
 -1.258545889E-01 -4.683891948E-03 6.986974006E+04 9.979887240E+01 3.360467957E+00
 -1.126960300E-01 -4.356055272E-03 6.989648590E+04 9.949329964E+01 3.631177866E+00
 -1.006821558E-01 -4.056530720E-03 6.992728181E+04 9.914029512E+01 3.921894452E+00
 -8.972177247E-02 -3.783227804E-03 6.996273635E+04 9.873236052E+01 4.234130124E+00
 -7.973058364E-02 -3.534189985E-03 7.000355418E+04 9.826066995E+01 4.569562679E+00
 -7.063068582E-02 -3.307584677E-03 7.005055624E+04 9.771481745E+01 4.930051659E+00
 -6.235010032E-02 -3.101694640E-03 7.010470156E+04 9.708229189E+01 5.317673021E+00
 -5.482233861E-02 -2.914910560E-03 7.016712671E+04 9.634823621E+01 5.734716001E+00
 -4.798599865E-02 -2.745724635E-03 7.023914501E+04 9.549411202E+01 6.183759220E+00
 -4.178439028E-02 -2.592725096E-03 7.032227083E+04 9.450022910E+01 6.668529753E+00
 -3.616935659E-02 -2.418400499E-03 7.041780620E+04 9.334357186E+01 7.205595650E+00
 -3.110540031E-02 -2.096716914E-03 7.052728106E+04 9.199723306E+01 7.817647908E+00
 -2.652899055E-02 -1.806497343E-03 7.065375497E+04 9.041668808E+01 8.509962713E+00
 -2.239921897E-02 -1.545078091E-03 7.080113768E+04 8.853563274E+01 9.289634512E+00
 -1.867837007E-02 -1.309995850E-03 7.097386687E+04 8.627907031E+01 1.017652097E+01
 -1.533168297E-02 -1.098975063E-03 7.117725465E+04 8.353085940E+01 1.120464212E+01
 -1.232713045E-02 -9.099158867E-04 7.141947322E+04 8.014360043E+01 1.240542888E+01
 -9.635213978E-03 -7.408827000E-04 7.170890173E+04 7.582875496E+01 1.387318444E+01
 -7.228773624E-03 -5.900930876E-04 7.206236185E+04 7.026585353E+01 1.563798134E+01
 -5.082811761E-03 -4.559072387E-04 7.248092994E+04 6.255590652E+01 1.807272579E+01
 -3.174329609E-03 -3.368174354E-04 7.297828007E+04 5.214790119E+01 2.114548536E+01
 -1.482175602E-03 -2.314368881E-04 7.339277736E+04 3.805383495E+01 2.752079584E+01
 1.309555987E-05 -1.384829409E-04 7.353229448E+04 2.977714010E+01 3.231574280E+01
 -4.919121367E+00 4.110405248E-02 6.969576366E+04 1.017586007E+02 1.048488216E-02
 -4.543644083E+00 4.538639888E-02 6.969577580E+04 1.017584300E+02 1.610532926E-02
 -4.195863232E+00 4.935896726E-02 6.969579786E+04 1.017581309E+02 2.905701744E-02
 -3.873789872E+00 5.304389243E-02 6.969581598E+04 1.017578431E+02 4.446886397E-02
 -3.575575098E+00 5.646176073E-02 6.969584544E+04 1.017574616E+02 6.120833028E-02
 -3.298151953E+00 5.297705230E-02 6.969591203E+04 1.017567911E+02 7.911688039E-02
 -3.041088653E+00 4.861951352E-02 6.969601291E+04 1.017557865E+02 9.822654093E-02
 -2.803197811E+00 4.459267244E-02 6.969613339E+04 1.017545625E+02 1.185944227E-01
 -2.583091717E+00 4.087248905E-02 6.969627666E+04 1.017530770E+02 1.403214219E-01
 -2.379480941E+00 3.743663005E-02 6.969644830E+04 1.017512742E+02 1.635414506E-01
 -2.191167492E+00 3.426435031E-02 6.969665144E+04 1.017491172E+02 1.883995589E-01
 -2.017038436E+00 3.133638205E-02 6.969689042E+04 1.017465558E+02 2.150521226E-01
 -1.856059964E+00 2.863483131E-02 6.969717106E+04 1.017435259E+02 2.436710308E-01
 -1.707271859E+00 2.614308131E-02 6.969749994E+04 1.017399545E+02 2.744435296E-01
 -1.569782352E+00 2.384570220E-02 6.969788467E+04 1.017357564E+02 3.075723523E-01
 -1.442763332E+00 2.172836691E-02 6.969833425E+04 1.017308313E+02 3.432768168E-01
 -1.325445878E+00 1.977777251E-02 6.969885918E+04 1.017250616E+02 3.817937824E-01
 -1.217116112E+00 1.798156698E-02 6.969947176E+04 1.017183096E+02 4.233785662E-01
 -1.117111330E+00 1.632828092E-02 6.970018634E+04 1.017104145E+02 4.683060178E-01
 -1.024816408E+00 1.480726388E-02 6.970101969E+04 1.017011879E+02 5.168716655E-01
 -9.396604454E-01 1.340862509E-02 6.970199138E+04 1.016904104E+02 5.693929036E-01
 -8.611136574E-01 1.212317838E-02 6.970312421E+04 1.016778253E+02 6.262102338E-01
 -7.886844679E-01 1.094239085E-02 6.970444476E+04 1.016631339E+02 6.876885276E-01
 -7.219168133E-01 9.858335331E-03 6.970598395E+04 1.016459879E+02 7.542182669E-01
 -6.603876307E-01 8.863646236E-03 6.970777774E+04 1.016259820E+02 8.262169452E-01
 -6.037045210E-01 7.951478708E-03 6.970986789E+04 1.016026449E+02 9.041304123E-01
 -5.515035755E-01 7.115470870E-03 6.971230287E+04 1.015754294E+02 9.884344228E-01
 -5.034473530E-01 6.349709018E-03 6.971513879E+04 1.015437005E+02 1.079635843E+00
 -4.592229991E-01 5.648695606E-03 6.971844067E+04 1.015067229E+02 1.178273972E+00
 -4.185404959E-01 5.007319872E-03 6.972228362E+04 1.014636421E+02 1.284926198E+00
 -3.811310349E-01 4.420830964E-03 6.972675400E+04 1.014134696E+02 1.400194779E+00
 -3.467455029E-01 3.884813411E-03 6.973195192E+04 1.013550701E+02 1.524718620E+00
 -3.151530751E-01 3.395164797E-03 6.973799313E+04 1.012871329E+02 1.659207660E+00
 -2.861399055E-01 2.948075456E-03 6.974500989E+04 1.012081451E+02 1.804400364E+00
 -2.595079103E-01 2.540010044E-03 6.975315379E+04 1.011163597E+02 1.961061158E+00
 -2.350736364E-01 2.167690783E-03 6.976259949E+04 1.010097627E+02 2.130022019E+00
 -2.126672095E-01 1.828082185E-03 6.977354735E+04 1.008860362E+02 2.312173627E+00
 -1.921313563E-01 1.518377078E-03 6.978622669E+04 1.007425136E+02 2.508466516E+00
 -1.733204960E-01 1.235983699E-03 6.980090015E+04 1.005761236E+02 2.719922899E+00
 -1.560998952E-01 9.785136686E-04 6.981786855E+04 1.003833249E+02 2.947646739E+00
 -1.403448833E-01 7.437706476E-04 6.983747665E+04 1.001600307E+02 3.192838471E+00
 -1.259401234E-01 5.297394922E-04 6.986011967E+04 9.990151173E+01 3.456801691E+00
 -1.127789342E-01 3.345757590E-04 6.988625107E+04 9.960229175E+01 3.740970096E+00
 -1.007626612E-01 1.565954217E-04 6.991639272E+04 9.925599647E+01 4.046930302E+00
 -8.980009145E-02 -5.735289044E-06 6.995114798E+04 9.885516738E+01 4.376438523E+00
 -7.980691084E-02 -1.538099769E-04 6.999121520E+04 9.839102479E+01 4.731462782E+00
 -7.070519964E-02 -2.888921453E-04 7.003740786E+04 9.785322039E+01 5.114207106E+00
 -6.242296428E-02 -4.121251956E-04 7.009067535E+04 9.722931378E+01 5.527168015E+00
 -5.489370248E-02 -5.245422877E-04 7.015214293E+04 9.650453707E+01 5.973150854E+00
 -4.805599966E-02 -6.270759768E-04 7.022310999E+04 9.566046010E+01 6.455395650E+00
 -4.185315417E-02 -7.205676157E-04 7.030508173E+04 9.467734641E+01 6.978238977E+00
 -3.623564484E-02 -7.736978054E-04 7.039936411E+04 9.353225522E+01 7.557775722E+00
 -3.116318312E-02 -6.741087434E-04 7.050746647E+04 9.219835374E+01 8.215983944E+00
 -2.657908537E-02 -5.845995724E-04 7.063240885E+04 9.063153134E+01 8.959469952E+00
 -2.244237475E-02 -5.043011989E-04 7.077802861E+04 8.876577792E+01 9.797915019E+00
 -1.871527262E-02 -4.324048344E-04 7.094873699E+04 8.652702064E+01 1.075256887E+01
 -1.536295998E-02 -3.681597965E-04 7.114968820E+04 8.379863707E+01 1.186065362E+01
 -1.235335605E-02 -3.108711582E-04 7.138912827E+04 8.043633903E+01 1.315529547E+01
 -9.656912978E-03 -2.598972430E-04 7.167482420E+04 7.614818588E+01 1.473941805E+01
 -7.246425417E-03 -2.146469555E-04 7.202433696E+04 7.062358275E+01 1.664551208E+01
 -5.096853936E-03 -1.745769120E-04 7.243609336E+04 6.295228255E+01 1.926867495E+01
 -3.185161273E-03 -1.391881328E-04 7.292761454E+04 5.260996933E+01 2.257018072E+01
 -1.490160457E-03 -1.080214176E-04 7.333173196E+04 3.859445914E+01 2.914245110E+01
 7.626351982E-06 -8.064715534E-05 7.346151010E+04 3.034272050E+01 3.401903998E+01
 -4.913313371E+00 2.489252871E-01 6.969508705E+04 1.017612853E+02 1.056395123E-02
 -4.537948905E+00 2.350072575E-01 6.969507500E+04 1.017614948E+02 1.620022819E-02
 -4.190272572E+00 2.221219492E-01 6.969505323E+04 1.017619440E+02 2.919322303E-02
 -3.868296024E+00 2.101950994E-01 6.969503652E+04 1.017623708E+02 4.466448882E-02
 -3.570170908E+00 1.991576927E-01 6.969503135E+04 1.017626927E+02 6.147634439E-02
 -3.293122559E+00 1.842063908E-01 6.969505246E+04 1.017627839E+02 7.946890786E-02
 -3.036455761E+00 1.696365943E-01 6.969509925E+04 1.017625993E+02 9.867399634E-02
 -2.798931859E+00 1.561591685E-01 6.969516187E+04 1.017622174E+02 1.191465033E-01
 -2.579165281E+00 1.436949430E-01 6.969524276E+04 1.017616063E+02 1.409898272E-01
 -2.375868585E+00 1.321703586E-01 6.969534637E+04 1.017607229E+02 1.643413884E-01
 -2.187845625E+00 1.215170767E-01 6.969547558E+04 1.017595346E+02 1.893495870E-01
 -2.013985185E+00 1.116716155E-01 6.969563430E+04 1.017579978E+02 2.161745223E-01
 -1.853255047E+00 1.025750101E-01 6.969582769E+04 1.017560563E+02 2.449922951E-01
 -1.704696477E+00 9.417249681E-02 6.969606179E+04 1.017536440E+02 2.759948863E-01
 -1.567419081E+00 8.641321796E-02 6.969634364E+04 1.017506828E+02 3.093903981E-01
 -1.440596022E+00 7.924994754E-02 6.969668162E+04 1.017470797E+02 3.454042915E-01
 -1.323459567E+00 7.263883535E-02 6.969708565E+04 1.017427244E+02 3.842804961E-01
 -1.215296938E+00 6.653916870E-02 6.969756736E+04 1.017374868E+02 4.262824720E-01
 -1.115446453E+00 6.091315058E-02 6.969814048E+04 1.017312137E+02 4.716944407E-01
 -1.023293936E+00 5.572569304E-02 6.969882108E+04 1.017237246E+02 5.208227122E-01
 -9.382693697E-01 5.094422486E-02 6.969962805E+04 1.017148078E+02 5.739970698E-01
 -8.598437836E-01 4.653851261E-02 6.970058349E+04 1.017042151E+02 6.315722109E-01
 -7.875263610E-01 4.248049414E-02 6.970171322E+04 1.016916556E+02 6.939292418E-01
 -7.208617416E-01 3.874412380E-02 6.970304745E+04 1.016767894E+02 7.614772444E-01
 -6.594275153E-01 3.530522850E-02 6.970462136E+04 1.016592196E+02 8.346548879E-01
 -6.028318884E-01 3.214137401E-02 6.970647597E+04 1.016384830E+02 9.139320914E-01
 -5.507115136E-01 2.923174089E-02 6.970865896E+04 1.016140406E+02 9.998119379E-01
 -5.027294703E-01 2.655700933E-02 6.971122568E+04 1.015852656E+02 1.092832020E+00
 -4.585733869E-01 2.409925239E-02 6.971424034E+04 1.015514298E+02 1.193566498E+00
 -4.179536928E-01 2.184183710E-02 6.971777734E+04 1.015116897E+02 1.302628744E+00
 -3.806019942E-01 1.976933299E-02 6.972192251E+04 1.014650661E+02 1.420677156E+00
 -3.462695622E-01 1.786742737E-02 6.972677463E+04 1.014104228E+02 1.548399167E+00
 -3.147259277E-01 1.612284718E-02 6.973244816E+04 1.013464547E+02 1.686529604E+00
 -2.857575747E-01 1.452328662E-02 6.973907528E+04 1.012716648E+02 1.835886457E+00
 -2.591667246E-01 1.305734046E-02 6.974680691E+04 1.011843178E+02 1.997323933E+00