TITLE     = "fluent22.1.0  build-id: 10213"
VARIABLES = "X"
"Y"
"Pressure"
"X Velocity"
"Y Velocity"
DATASETAUXDATA Common.DensityVar="23"
DATASETAUXDATA Common.PressureVar="3"
DATASETAUXDATA Common.TemperatureVar="12"
DATASETAUXDATA Common.TurbulentDynamicViscosityVar="17"
DATASETAUXDATA Common.UVar="5"
DATASETAUXDATA Common.VectorVarsAreVelocity="TRUE"
DATASETAUXDATA Common.ViscosityVar="25"
DATASETAUXDATA Common.VVar="7"
ZONE T="fluid"
 STRANDID=1, SOLUTIONTIME=0.775
 Nodes=10240, Elements=10080, ZONETYPE=FEQuadrilateral
 DATAPACKING=POINT
 DT=(DOUBLE DOUBLE DOUBLE DOUBLE DOUBLE )
 -4.856290020E+00 -7.872354469E-01 6.969854210E+04 1.017477186E+02 8.766108755E-03
 -4.486959800E+00 -7.103844610E-01 6.969865441E+04 1.017459843E+02 1.447124073E-02
 -4.884823481E+00 -5.813004056E-01 6.969785879E+04 1.017503585E+02 9.519261036E-03
 -4.512973435E+00 -5.225043900E-01 6.969794471E+04 1.017490225E+02 1.525849732E-02
 -4.144872443E+00 -6.391956278E-01 6.969885418E+04 1.017426291E+02 2.766787437E-02
 -4.168552155E+00 -4.680388569E-01 6.969809845E+04 1.017464374E+02 2.851228011E-02
 -3.828071594E+00 -5.732625474E-01 6.969901256E+04 1.017394171E+02 4.342123336E-02
 -3.849589931E+00 -4.175929885E-01 6.969822048E+04 1.017439594E+02 4.431305234E-02
 -3.534738632E+00 -5.122073513E-01 6.969918520E+04 1.017361296E+02 6.050970387E-02
 -3.554255732E+00 -3.708778222E-01 6.969835547E+04 1.017414091E+02 6.146510239E-02
 -3.260666543E+00 -4.700027971E-01 6.969943719E+04 1.017323423E+02 7.868014005E-02
 -3.278623324E+00 -3.400303225E-01 6.969856075E+04 1.017384038E+02 7.974285690E-02
 -3.006507531E+00 -4.336678127E-01 6.969975556E+04 1.017280126E+02 9.795526035E-02
 -3.023069203E+00 -3.138090872E-01 6.969882575E+04 1.017348989E+02 9.916630705E-02
 -2.771304296E+00 -4.000369230E-01 6.970010896E+04 1.017233726E+02 1.184569091E-01
 -2.786574923E+00 -2.895376338E-01 6.969912178E+04 1.017311097E+02 1.198370688E-01
 -2.553684815E+00 -3.689145140E-01 6.970050394E+04 1.017183386E+02 1.402928006E-01
 -2.567760927E+00 -2.670749450E-01 6.969945462E+04 1.017269603E+02 1.418618735E-01
 -2.352374237E+00 -3.401188215E-01 6.970094928E+04 1.017128173E+02 1.635855478E-01
 -2.365345364E+00 -2.462899860E-01 6.969983267E+04 1.017223629E+02 1.653672224E-01
 -2.166188110E+00 -3.134809644E-01 6.970144915E+04 1.017067511E+02 1.884733412E-01
 -2.178137281E+00 -2.270610091E-01 6.970025967E+04 1.017172654E+02 1.904943357E-01
 -1.994026082E+00 -2.888440471E-01 6.970200997E+04 1.017000613E+02 2.151059300E-01
 -2.005030283E+00 -2.092749056E-01 6.970074147E+04 1.017115962E+02 2.173961602E-01
 -1.834866029E+00 -2.660623235E-01 6.970263981E+04 1.016926554E+02 2.436455420E-01
 -1.844996634E+00 -1.928266034E-01 6.970128566E+04 1.017052692E+02 2.462386213E-01
 -1.687758588E+00 -2.450004187E-01 6.970334729E+04 1.016844339E+02 2.742672165E-01
 -1.697081761E+00 -1.776185067E-01 6.970190041E+04 1.016981909E+02 2.772011915E-01
 -1.551822070E+00 -2.255326043E-01 6.970414212E+04 1.016752846E+02 3.071594259E-01
 -1.560399132E+00 -1.635599735E-01 6.970259492E+04 1.016902556E+02 3.104774043E-01
 -1.426237720E+00 -2.075421247E-01 6.970503545E+04 1.016650798E+02 3.425243657E-01
 -1.434125500E+00 -1.505668300E-01 6.970337986E+04 1.016813421E+02 3.462754097E-01
 -1.310245310E+00 -1.909205693E-01 6.970603999E+04 1.016536747E+02 3.805784293E-01
 -1.317496461E+00 -1.385609190E-01 6.970426745E+04 1.016713119E+02 3.848185349E-01
 -1.203139028E+00 -1.755672885E-01 6.970717025E+04 1.016409044E+02 4.215527632E-01
 -1.209802330E+00 -1.274696788E-01 6.970527169E+04 1.016600065E+02 4.263458956E-01
 -1.104263660E+00 -1.613888506E-01 6.970844284E+04 1.016265808E+02 4.656937877E-01
 -1.110384296E+00 -1.172257523E-01 6.970640871E+04 1.016472437E+02 4.711130999E-01
 -1.013011031E+00 -1.482985355E-01 6.970987681E+04 1.016104883E+02 5.132635577E-01
 -1.018630846E+00 -1.077666222E-01 6.970769706E+04 1.016328141E+02 5.193928810E-01
 -9.288166953E-01 -1.362158645E-01 6.971149404E+04 1.015923799E+02 5.645405208E-01
 -9.339744347E-01 -9.903427249E-02 6.970915812E+04 1.016164765E+02 5.714757937E-01
 -8.511568514E-01 -1.250661620E-01 6.971331964E+04 1.015719721E+02 6.198198632E-01
 -8.558883861E-01 -9.097487267E-02 6.971081653E+04 1.015979532E+02 6.276706850E-01
 -7.795454785E-01 -1.147801478E-01 6.971538249E+04 1.015489391E+02 6.794136433E-01
 -7.838840116E-01 -8.353848428E-02 6.971270069E+04 1.015769239E+02 6.883054974E-01
 -7.135316661E-01 -1.052935574E-01 6.971771581E+04 1.015229075E+02 7.436507397E-01
 -7.175079256E-01 -7.667878749E-02 6.971484335E+04 1.015530192E+02 7.537280597E-01
 -6.526971314E-01 -9.654678941E-02 6.972035779E+04 1.014934449E+02 8.128794405E-01
 -6.563395496E-01 -7.035282661E-02 6.971728230E+04 1.015258127E+02 8.243055209E-01
 -5.966539092E-01 -8.848457591E-02 6.972335240E+04 1.014600536E+02 8.874640481E-01
 -5.999887886E-01 -6.452077311E-02 6.972006114E+04 1.014948140E+02 9.004265850E-01
 -5.450422025E-01 -8.105567670E-02 6.972675003E+04 1.014221612E+02 9.677843885E-01
 -5.480938709E-01 -5.914570486E-02 6.972322994E+04 1.014594516E+02 9.825013677E-01
 -4.975283831E-01 -7.421259393E-02 6.973060899E+04 1.013791149E+02 1.054239824E+00
 -5.003193371E-01 -5.419340048E-02 6.972684641E+04 1.014190718E+02 1.070957324E+00
 -4.538031320E-01 -6.791130644E-02 6.973499660E+04 1.013301571E+02 1.147255159E+00
 -4.563541700E-01 -4.963214758E-02 6.973097737E+04 1.013729249E+02 1.166242333E+00
 -4.135797087E-01 -6.211102224E-02 6.973998975E+04 1.012744126E+02 1.247268506E+00
 -4.159100554E-01 -4.543256411E-02 6.973569977E+04 1.013201389E+02 1.268838041E+00
 -3.765923429E-01 -5.677394773E-02 6.974567666E+04 1.012108805E+02 1.354727729E+00
 -3.787197638E-01 -4.156743156E-02 6.974110186E+04 1.012597112E+02 1.379248329E+00
 -3.425947373E-01 -5.186507267E-02 6.975215910E+04 1.011384039E+02 1.470104905E+00
 -3.445356459E-01 -3.801153948E-02 6.974728493E+04 1.011904888E+02 1.497987323E+00
 -3.113586766E-01 -4.735196956E-02 6.975955416E+04 1.010556503E+02 1.593891866E+00
 -3.131282332E-01 -3.474154028E-02 6.975436564E+04 1.011111411E+02 1.625595662E+00
 -2.826727328E-01 -4.320460671E-02 6.976799614E+04 1.009610877E+02 1.726597591E+00
 -2.842849369E-01 -3.173581378E-02 6.976247817E+04 1.010201353E+02 1.762644908E+00
 -2.563410626E-01 -3.939517378E-02 6.977763907E+04 1.008529533E+02 1.868749675E+00
 -2.578088380E-01 -2.897434073E-02 6.977177642E+04 1.009157084E+02 1.909732507E+00
 -2.321822879E-01 -3.589791925E-02 6.978865970E+04 1.007292183E+02 2.020896737E+00
 -2.335175624E-01 -2.643858480E-02 6.978243685E+04 1.007958316E+02 2.067482659E+00
 -2.100284567E-01 -3.268899890E-02 6.980126075E+04 1.005875468E+02 2.183609829E+00
 -2.112422354E-01 -2.411138262E-02 6.979466186E+04 1.006581690E+02 2.236551035E+00
 -1.897240756E-01 -2.974633474E-02 6.981567464E+04 1.004252493E+02 2.357484289E+00
 -1.908265094E-01 -2.197684117E-02 6.980868346E+04 1.005000311E+02 2.417627937E+00
 -1.711252114E-01 -2.704948373E-02 6.983216780E+04 1.002392260E+02 2.543142987E+00
 -1.721256605E-01 -2.002024242E-02 6.982476757E+04 1.003183187E+02 2.611442199E+00
 -1.540986563E-01 -2.457951577E-02 6.985104583E+04 1.000259014E+02 2.741238859E+00
 -1.550057487E-01 -1.822795463E-02 6.984321906E+04 1.001094577E+02 2.818765516E+00
 -1.385211514E-01 -2.231890055E-02 6.987265931E+04 9.978114426E+01 2.952462685E+00
 -1.393428377E-01 -1.658735017E-02 6.986438768E+04 9.986931812E+01 3.040422905E+00
 -1.242786655E-01 -2.025140263E-02 6.989741069E+04 9.950017381E+01 3.177537490E+00
 -1.250222699E-01 -1.508672942E-02 6.988867485E+04 9.959312271E+01 3.277288404E+00
 -1.112657254E-01 -1.836198453E-02 6.992576230E+04 9.917744945E+01 3.417232323E+00
 -1.119379923E-01 -1.371525052E-02 6.991654153E+04 9.927533471E+01 3.530303310E+00
 -9.938479345E-02 -1.663671716E-02 6.995824697E+04 9.880651254E+01 3.672368996E+00
 -9.999193118E-02 -1.246286470E-02 6.994851894E+04 9.890949645E+01 3.800487945E+00
 -8.854568893E-02 -1.506269744E-02 6.999548183E+04 9.837980289E+01 3.943812799E+00
 -8.909341045E-02 -1.132025681E-02 6.998522231E+04 9.848805049E+01 4.088935455E+00
 -7.866505162E-02 -1.362797239E-02 7.003818241E+04 9.788841241E+01 4.232468181E+00
 -7.915861190E-02 -1.027879085E-02 7.002736419E+04 9.800210430E+01 4.396820735E+00
 -6.966584287E-02 -1.232146937E-02 7.008718222E+04 9.732184084E+01 4.539234613E+00
 -7.011007378E-02 -9.330460041E-03 7.007577487E+04 9.744117010E+01 4.725396365E+00
 -6.147688266E-02 -1.113293221E-02 7.014345189E+04 9.666752842E+01 4.864990573E+00
 -6.187622526E-02 -8.467841323E-03 7.013142504E+04 9.679264408E+01 5.075985555E+00
 -5.403241972E-02 -1.005286262E-02 7.020814098E+04 9.591054921E+01 5.210647298E+00
 -5.439095419E-02 -7.684053622E-03 7.019546399E+04 9.604155852E+01 5.449969017E+00
 -4.727173246E-02 -9.072465748E-03 7.028258060E+04 9.503233491E+01 5.577043325E+00
 -4.759320583E-02 -6.972719545E-03 7.026921928E+04 9.516930370E+01 5.848715445E+00
 -4.113875852E-02 -8.183600861E-03 7.036830832E+04 9.401297167E+01 5.966542363E+00
 -4.142661037E-02 -6.327930469E-03 7.035421552E+04 9.415611599E+01 6.275145234E+00
 -3.558996757E-02 -7.330263060E-03 7.046669690E+04 9.282852855E+01 6.397572666E+00
 -3.584600744E-02 -5.699826641E-03 7.045177028E+04 9.297857931E+01 6.747433131E+00
 -3.060476700E-02 -6.345287301E-03 7.057935384E+04 9.145136217E+01 6.894572231E+00
 -3.082574704E-02 -4.934964845E-03 7.056345364E+04 9.160941301E+01 7.289597675E+00
 -2.609953850E-02 -5.455667456E-03 7.070939871E+04 8.983638392E+01 7.458570902E+00
 -2.628883209E-02 -4.244260279E-03 7.069237772E+04 9.000362078E+01 7.903978847E+00
 -2.203400873E-02 -4.653374971E-03 7.086082449E+04 8.791712118E+01 8.090151518E+00
 -2.219470638E-02 -3.621464503E-03 7.084251372E+04 8.809449558E+01 8.593329394E+00
 -1.837104745E-02 -3.931000355E-03 7.103813163E+04 8.561696889E+01 8.805231683E+00
 -1.850597893E-02 -3.060809069E-03 7.101834433E+04 8.580604703E+01 9.375074092E+00
 -1.507643309E-02 -3.281709470E-03 7.124691322E+04 8.282003550E+01 9.629842555E+00
 -1.518818787E-02 -2.556972193E-03 7.122535011E+04 8.302200145E+01 1.027781474E+01
 -1.211863529E-02 -2.699202620E-03 7.149528829E+04 7.937367861E+01 1.059019315E+01
 -1.220958145E-02 -2.105047447E-03 7.147167937E+04 7.959241004E+01 1.132965737E+01
 -9.468613130E-03 -2.177676253E-03 7.179261925E+04 7.499361523E+01 1.175886295E+01
 -9.540914822E-03 -1.700514374E-03 7.176631363E+04 7.522830061E+01 1.261028007E+01
 -7.099628051E-03 -1.711787025E-03 7.215446683E+04 6.934658108E+01 1.315962486E+01
 -7.155261666E-03 -1.339210841E-03 7.212543125E+04 6.960647998E+01 1.414259232E+01
 -4.987070308E-03 -1.296618080E-03 7.258658572E+04 6.154408301E+01 1.512113023E+01
 -5.027839399E-03 -1.017307006E-03 7.255249141E+04 6.181725970E+01 1.628067841E+01
 -3.108298051E-03 -9.276470235E-04 7.309532101E+04 5.103928961E+01 1.761128277E+01
 -3.135847130E-03 -7.312804383E-04 7.305766001E+04 5.134130086E+01 1.900450801E+01
 -1.442488046E-03 -6.007149403E-04 7.353012472E+04 3.660802137E+01 2.367327767E+01
 -1.458315332E-03 -4.778917050E-04 7.348254331E+04 3.699500304E+01 2.523024887E+01
 2.950318352E-05 -3.119902977E-04 7.368843865E+04 2.805127320E+01 2.845828964E+01
 2.403397564E-05 -2.541545121E-04 7.363053557E+04 2.848806257E+01 3.005325547E+01
 -4.904860300E+00 -3.743658139E-01 6.969716566E+04 1.017530635E+02 1.015481691E-02
 -4.531141791E+00 -3.337015896E-01 6.969722689E+04 1.017521153E+02 1.592229059E-02
 -4.184989902E+00 -2.960304844E-01 6.969733710E+04 1.017502897E+02 2.922105834E-02
 -3.864425020E+00 -2.611376890E-01 6.969742490E+04 1.017485440E+02 4.505348000E-02
 -3.567606909E+00 -2.288235129E-01 6.969752452E+04 1.017467255E+02 6.224484543E-02
 -3.290892889E+00 -2.093902016E-01 6.969768372E+04 1.017445029E+02 8.060286090E-02
 -3.034386936E+00 -1.933348893E-01 6.969789469E+04 1.017418295E+02 1.001514443E-01
 -2.797011826E+00 -1.784711515E-01 6.969813284E+04 1.017388924E+02 1.209688786E-01
 -2.577382862E+00 -1.647128494E-01 6.969840311E+04 1.017356263E+02 1.431592410E-01
 -2.374213417E+00 -1.519799408E-01 6.969871315E+04 1.017319526E+02 1.668533253E-01
 -2.186308101E+00 -1.401980540E-01 6.969906648E+04 1.017278247E+02 1.921947212E-01
 -2.012556396E+00 -1.292980935E-01 6.969946841E+04 1.017231787E+02 2.193387107E-01
 -1.851926738E+00 -1.192158715E-01 6.969992597E+04 1.017179355E+02 2.484549495E-01
 -1.703460997E+00 -1.098917657E-01 6.970044683E+04 1.017120084E+02 2.797274824E-01
 -1.566269340E+00 -1.012704016E-01 6.970103969E+04 1.017052984E+02 3.133550548E-01
 -1.439525451E+00 -9.330035526E-02 6.970171467E+04 1.016976909E+02 3.495518800E-01
 -1.322462080E+00 -8.593387872E-02 6.970248347E+04 1.016890541E+02 3.885483245E-01
 -1.214366898E+00 -7.912664294E-02 6.970335956E+04 1.016792359E+02 4.305916399E-01
 -1.114578640E+00 -7.283749950E-02 6.970435851E+04 1.016680607E+02 4.759467857E-01
 -1.022483515E+00 -6.702825860E-02 6.970549832E+04 1.016553255E+02 5.248972322E-01
 -9.375118641E-01 -6.166348247E-02 6.970679982E+04 1.016407957E+02 5.777458364E-01
 -8.591350497E-01 -5.671029312E-02 6.970828710E+04 1.016241997E+02 6.348157062E-01
 -7.868625630E-01 -5.213819337E-02 6.970998800E+04 1.016052235E+02 6.964510284E-01
 -7.202393300E-01 -4.791890024E-02 6.971193473E+04 1.015835039E+02 7.630176723E-01
 -6.588432054E-01 -4.402618967E-02 6.971416454E+04 1.015586203E+02 8.349043928E-01
 -6.022826419E-01 -4.043575196E-02 6.971672046E+04 1.015300866E+02 9.125238753E-01
 -5.501945200E-01 -3.712505696E-02 6.971965218E+04 1.014973421E+02 9.963121951E-01
 -5.022421310E-01 -3.407322830E-02 6.972301704E+04 1.014597347E+02 1.086732177E+00
 -4.581132996E-01 -3.126092605E-02 6.972688108E+04 1.014165152E+02 1.184267870E+00
 -4.175186374E-01 -2.867023723E-02 6.973132055E+04 1.013668163E+02 1.289428569E+00
 -3.801899196E-01 -2.628457337E-02 6.973642359E+04 1.013096418E+02 1.402761706E+00
 -3.458785743E-01 -2.408857486E-02 6.974229145E+04 1.012438437E+02 1.524846673E+00
 -3.143542781E-01 -2.206802143E-02 6.974904017E+04 1.011680925E+02 1.656280239E+00
 -2.854036501E-01 -2.020974849E-02 6.975680318E+04 1.010808609E+02 1.797687601E+00
 -2.588290374E-01 -1.850156882E-02 6.976573393E+04 1.009803880E+02 1.949738243E+00
 -2.344473861E-01 -1.693219933E-02 6.977600846E+04 1.008646468E+02 2.113138515E+00
 -2.120891920E-01 -1.549119275E-02 6.978782850E+04 1.007313052E+02 2.288632696E+00
 -1.915975244E-01 -1.416887375E-02 6.980142528E+04 1.005776774E+02 2.477010826E+00
 -1.728271197E-01 -1.295627962E-02 6.981706377E+04 1.004006694E+02 2.679114724E+00
 -1.556435384E-01 -1.184510504E-02 6.983504766E+04 1.001967138E+02 2.895843793E+00
 -1.399223819E-01 -1.082765097E-02 6.985572520E+04 9.996168785E+01 3.128166504E+00
 -1.255485647E-01 -9.896777477E-03 6.987949606E+04 9.969082464E+01 3.377122833E+00
 -1.124156384E-01 -9.045860361E-03 6.990681898E+04 9.937859903E+01 3.643844674E+00
 -1.004251632E-01 -8.268751348E-03 6.993822245E+04 9.901856678E+01 3.929570803E+00
 -8.948612487E-02 -7.559741826E-03 6.997431844E+04 9.860318817E+01 4.235651365E+00
 -7.951439270E-02 -6.913529820E-03 7.001581567E+04 9.812358876E+01 4.563565914E+00
 -7.043221616E-02 -6.325190028E-03 7.006354005E+04 9.756930290E+01 4.914931395E+00
 -6.216775774E-02 -5.790146745E-03 7.011845687E+04 9.692774527E+01 5.291529152E+00
 -5.465465904E-02 -5.304149299E-03 7.018170973E+04 9.618397080E+01 5.695299681E+00
 -4.783163803E-02 -4.863249716E-03 7.025461907E+04 9.531935883E+01 6.128350666E+00
 -4.164211517E-02 -4.463782528E-03 7.033870271E+04 9.431419025E+01 6.594134765E+00
 -3.603938725E-02 -4.062052373E-03 7.043525682E+04 9.314532007E+01 7.109535294E+00
 -3.099283590E-02 -3.518326241E-03 7.054580760E+04 9.178585923E+01 7.698154461E+00
 -2.643215936E-02 -3.027462040E-03 7.067343720E+04 9.019106054E+01 8.364765190E+00
 -2.231658932E-02 -2.584999161E-03 7.082209119E+04 8.829398485E+01 9.114634616E+00
 -1.860853932E-02 -2.186817393E-03 7.099622892E+04 8.601938252E+01 9.966679770E+00
 -1.527336734E-02 -1.829113966E-03 7.120119569E+04 8.325021991E+01 1.095312724E+01
 -1.227915565E-02 -1.508381892E-03 7.144518585E+04 7.983965373E+01 1.210409416E+01
 -9.596506559E-03 -1.221389536E-03 7.173664366E+04 7.549439372E+01 1.350958737E+01
 -7.198352985E-03 -9.651612886E-04 7.209242892E+04 6.990298133E+01 1.519136198E+01
 -5.059782779E-03 -7.369592505E-04 7.251334980E+04 6.213549938E+01 1.752514734E+01
 -3.157875819E-03 -5.342655157E-04 7.301377282E+04 5.170573726E+01 2.048468981E+01
 -1.471552907E-03 -3.547643638E-04 7.342808842E+04 3.743672148E+01 2.688762665E+01
 1.856476775E-05 -1.963187265E-04 7.356547515E+04 2.895927426E+01 3.177010013E+01
 -4.916318661E+00 -1.667794339E-01 6.969647103E+04 1.017558042E+02 1.057505298E-02
 -4.541389321E+00 -1.442971698E-01 6.969650752E+04 1.017552468E+02 1.636390962E-02
 -4.194115943E+00 -1.234669338E-01 6.969657338E+04 1.017541885E+02 2.970829472E-02
 -3.872512496E+00 -1.041702013E-01 6.969662593E+04 1.017531761E+02 4.559469502E-02
 -3.574732778E+00 -8.629680043E-02 6.969668992E+04 1.017520806E+02 6.285325655E-02
 -3.297420510E+00 -7.831521860E-02 6.969680277E+04 1.017506337E+02 8.130611741E-02
 -3.040410268E+00 -7.245985869E-02 6.969695918E+04 1.017487894E+02 1.009781986E-01
 -2.802568492E+00 -6.703532455E-02 6.969713898E+04 1.017467033E+02 1.219339963E-01
 -2.582507760E+00 -6.201054048E-02 6.969734619E+04 1.017443220E+02 1.442774659E-01
 -2.378938914E+00 -5.735662730E-02 6.969758757E+04 1.017415771E+02 1.681437844E-01
 -2.190664212E+00 -5.304674898E-02 6.969786642E+04 1.017384270E+02 1.936799610E-01
 -2.016570954E+00 -4.905597030E-02 6.969818754E+04 1.017348147E+02 2.210445857E-01
 -1.855625545E+00 -4.536112454E-02 6.969855738E+04 1.017306685E+02 2.504113971E-01
 -1.706867970E+00 -4.194069063E-02 6.969898310E+04 1.017259080E+02 2.819691449E-01
 -1.569406647E+00 -3.877467900E-02 6.969947286E+04 1.017204411E+02 3.159218256E-01
 -1.442413634E+00 -3.584452548E-02 6.970003622E+04 1.017141600E+02 3.524896923E-01
 -1.325120174E+00 -3.313299276E-02 6.970068432E+04 1.017069396E+02 3.919101130E-01
 -1.216812536E+00 -3.062407874E-02 6.970143005E+04 1.016986347E+02 4.344384029E-01
 -1.116828155E+00 -2.830293134E-02 6.970228839E+04 1.016890767E+02 4.803487916E-01
 -1.024552034E+00 -2.615576932E-02 6.970327675E+04 1.016780696E+02 5.299354336E-01
 -9.394133919E-01 -2.416980853E-02 6.970441535E+04 1.016653857E+02 5.835134460E-01
 -8.608825538E-01 -2.233319334E-02 6.970572766E+04 1.016507605E+02 6.414199465E-01
 -7.884680460E-01 -2.063493275E-02 6.970724092E+04 1.016338870E+02 7.040150970E-01
 -7.217138999E-01 -1.906484076E-02 6.970898670E+04 1.016144088E+02 7.716832944E-01
 -6.601971406E-01 -1.761348086E-02 6.971100164E+04 1.015919124E+02 8.448341361E-01
 -6.035254507E-01 -1.627211407E-02 6.971332816E+04 1.015659184E+02 9.239036106E-01
 -5.513349974E-01 -1.503265034E-02 6.971601533E+04 1.015358713E+02 1.009355208E+00
 -5.032884099E-01 -1.388760310E-02 6.971911995E+04 1.015011291E+02 1.101680193E+00
 -4.590728992E-01 -1.283004649E-02 6.972270763E+04 1.014609473E+02 1.201403921E+00
 -4.183985080E-01 -1.185357525E-02 6.972685392E+04 1.014144620E+02 1.309075836E+00
 -3.809964841E-01 -1.095226692E-02 6.973164591E+04 1.013606778E+02 1.425272553E+00
 -3.466177668E-01 -1.012064618E-02 6.973718448E+04 1.012984579E+02 1.550618466E+00
 -3.150315798E-01 -9.353651259E-03 6.974358567E+04 1.012264820E+02 1.685783607E+00
 -2.860241222E-01 -8.646602106E-03 6.975098219E+04 1.011432217E+02 1.831459189E+00
 -2.593973524E-01 -7.995170460E-03 6.975952641E+04 1.010469250E+02 1.988369555E+00
 -2.349678560E-01 -7.395351536E-03 6.976939362E+04 1.009355702E+02 2.157298783E+00
 -2.125657951E-01 -6.843437428E-03 6.978078484E+04 1.008068299E+02 2.339080295E+00
 -1.920339300E-01 -6.335992134E-03 6.979393027E+04 1.006580259E+02 2.534599451E+00
 -1.732267108E-01 -5.869828264E-03 6.980909361E+04 1.004860727E+02 2.744804771E+00
 -1.560094331E-01 -5.441985406E-03 6.982657703E+04 1.002874131E+02 2.970716734E+00
 -1.402574529E-01 -5.049710214E-03 6.984672690E+04 1.000579384E+02 3.213439433E+00
 -1.258554581E-01 -4.690438197E-03 6.986994055E+04 9.979289616E+01 3.474167796E+00
 -1.126967901E-01 -4.361777244E-03 6.989667397E+04 9.948678042E+01 3.754210936E+00
 -1.006828154E-01 -4.061492864E-03 6.992745223E+04 9.913317461E+01 4.055009170E+00
 -8.972234006E-02 -3.787495112E-03 6.996288296E+04 9.872457041E+01 4.378147234E+00
 -7.973106774E-02 -3.537827121E-03 7.000366972E+04 9.825212868E+01 4.725386568E+00
 -7.063109479E-02 -3.310655169E-03 7.005063233E+04 9.770542713E+01 5.098685071E+00
 -6.235044230E-02 -3.104260138E-03 7.010472837E+04 9.707193054E+01 5.500235638E+00
 -5.482262139E-02 -2.917030189E-03 7.016709295E+04 9.633675746E+01 5.932466316E+00
 -4.798622963E-02 -2.747454446E-03 7.023903655E+04 9.548132260E+01 6.398131236E+00
 -4.178457641E-02 -2.594117623E-03 7.032206853E+04 9.448596104E+01 6.901164327E+00
 -3.616950427E-02 -2.419504448E-03 7.041746862E+04 9.332775957E+01 7.458368161E+00
 -3.110551527E-02 -2.097576914E-03 7.052673062E+04 9.197998749E+01 8.092828991E+00
 -2.652907824E-02 -1.807153875E-03 7.065291540E+04 9.039816402E+01 8.810221098E+00
 -2.239928427E-02 -1.545567429E-03 7.079992055E+04 8.851538400E+01 9.618299480E+00
 -1.867841730E-02 -1.310350121E-03 7.097218142E+04 8.625730531E+01 1.053746255E+01
 -1.533171591E-02 -1.099222397E-03 7.117489165E+04 8.350611389E+01 1.160349457E+01
 -1.232715237E-02 -9.100806176E-04 7.141632441E+04 8.011819911E+01 1.284771348E+01
 -9.635227655E-03 -7.409856085E-04 7.170430391E+04 7.579590739E+01 1.437093863E+01
 -7.228781400E-03 -5.901516765E-04 7.205647359E+04 7.023948804E+01 1.619741751E+01
 -5.082815576E-03 -4.559360178E-04 7.247073146E+04 6.250275579E+01 1.872812461E+01
 -3.174331033E-03 -3.368281945E-04 7.296562238E+04 5.213003843E+01 2.192878860E+01
 -1.482175869E-03 -2.314389105E-04 7.336936056E+04 3.794042819E+01 2.852388297E+01
 1.309555987E-05 -1.384829409E-04 7.349646718E+04 2.949027868E+01 3.347782982E+01
 -4.919121367E+00 4.110405248E-02 6.969577371E+04 1.017585677E+02 1.084618916E-02
 -4.543644744E+00 4.538136179E-02 6.969578543E+04 1.017583998E+02 1.666042412E-02
 -4.195864477E+00 4.934947279E-02 6.969580662E+04 1.017581075E+02 3.005863112E-02
 -3.873791631E+00 5.303047483E-02 6.969582376E+04 1.017578279E+02 4.600163646E-02
 -3.575577307E+00 5.644491233E-02 6.969585229E+04 1.017574557E+02 6.331767510E-02
 -3.298154553E+00 5.295720974E-02 6.969591859E+04 1.017567909E+02 8.184258313E-02
 -3.041091591E+00 4.859709322E-02 6.969601974E+04 1.017557869E+02 1.016091255E-01
 -2.803201036E+00 4.456806067E-02 6.969614047E+04 1.017545632E+02 1.226759115E-01
 -2.583095183E+00 4.084604056E-02 6.969628398E+04 1.017530773E+02 1.451469673E-01
 -2.379484605E+00 3.740867047E-02 6.969645592E+04 1.017512730E+02 1.691604830E-01
 -2.191171314E+00 3.423517834E-02 6.969665938E+04 1.017491133E+02 1.948661418E-01
 -2.017042381E+00 3.130627156E-02 6.969689870E+04 1.017465480E+02 2.224253130E-01
 -1.856063998E+00 2.860403320E-02 6.969717970E+04 1.017435129E+02 2.520153816E-01
 -1.707275953E+00 2.611182531E-02 6.969750898E+04 1.017399349E+02 2.838295830E-01
 -1.569786479E+00 2.381419843E-02 6.969789413E+04 1.017357285E+02 3.180771344E-01
 -1.442767465E+00 2.169680734E-02 6.969834415E+04 1.017307933E+02 3.549843685E-01
 -1.325449995E+00 1.974633226E-02 6.969886956E+04 1.017250115E+02 3.947957209E-01
 -1.217120192E+00 1.795040549E-02 6.969948265E+04 1.017182450E+02 4.377746729E-01
 -1.117115355E+00 1.629754297E-02 6.970019776E+04 1.017103328E+02 4.842048620E-01
 -1.024820359E+00 1.477708048E-02 6.970103165E+04 1.017010862E+02 5.343912651E-01
 -9.396643081E-01 1.337911430E-02 6.970200389E+04 1.016902854E+02 5.886614214E-01
 -8.611174177E-01 1.209444595E-02 6.970313727E+04 1.016776735E+02 6.473667065E-01
 -7.886881135E-01 1.091453080E-02 6.970445834E+04 1.016629511E+02 7.108836445E-01
 -7.219203334E-01 9.831430456E-03 6.970599800E+04 1.016457695E+02 7.796152309E-01
 -6.603910159E-01 8.837768485E-03 6.970779218E+04 1.016257230E+02 8.539923125E-01
 -6.037077634E-01 7.926689536E-03 6.970988258E+04 1.016023398E+02 9.344751948E-01
 -5.515066683E-01 7.091821520E-03 6.971231761E+04 1.015750720E+02 1.021554576E+00
 -5.034502910E-01 6.327240772E-03 6.971515333E+04 1.015432838E+02 1.115753879E+00
 -4.592257781E-01 5.627440005E-03 6.971845469E+04 1.015062383E+02 1.217629526E+00
 -4.185431132E-01 4.987298935E-03 6.972229674E+04 1.014630845E+02 1.327775981E+00
 -3.811334889E-01 4.402057409E-03 6.972676580E+04 1.014128293E+02 1.446821809E+00
 -3.467477932E-01 3.867290905E-03 6.973196142E+04 1.013543298E+02 1.575426447E+00
 -3.151552024E-01 3.378888235E-03 6.973799904E+04 1.012862859E+02 1.714304127E+00
 -2.861418715E-01 2.933031301E-03 6.974501134E+04 1.012071811E+02 1.864231279E+00
 -2.595097180E-01 2.526176722E-03 6.975314980E+04 1.011152607E+02 2.026010417E+00
 -2.350752897E-01 2.155039150E-03 6.976258822E+04 1.010085149E+02 2.200486505E+00
 -2.126687132E-01 1.816576075E-03 6.977352655E+04 1.008846239E+02 2.388581600E+00
 -1.921327161E-01 1.507973926E-03 6.978619389E+04 1.007409178E+02 2.591282629E+00
 -1.733217180E-01 1.226635241E-03 6.980085238E+04 1.005743227E+02 2.809647082E+00
 -1.561009865E-01 9.701667132E-04 6.981780227E+04 1.003812947E+02 3.044818018E+00
 -1.403458514E-01 7.363679031E-04 6.983738767E+04 1.001577435E+02 3.298039714E+00
 -1.259409761E-01 5.232204434E-04 6.986000303E+04 9.989893572E+01 3.570665180E+00
 -1.127796799E-01 3.288775693E-04 6.988610096E+04 9.959938977E+01 3.864183583E+00
 -1.007633082E-01 1.516538431E-04 6.991620237E+04 9.925272419E+01 4.180244576E+00
 -8.980064813E-02 -9.985019767E-06 6.995090944E+04 9.885147230E+01 4.520677253E+00
 -7.980738563E-02 -1.574322766E-04 6.999091917E+04 9.838684359E+01 4.887533965E+00
 -7.070560078E-02 -2.919502794E-04 7.003704352E+04 9.784847624E+01 5.283117962E+00
 -6.242329975E-02 -4.146805468E-04 7.009023000E+04 9.722391015E+01 5.710043259E+00
 -5.489397994E-02 -5.266537144E-04 7.015160180E+04 9.649835627E+01 6.171257349E+00
 -4.805622637E-02 -6.287992692E-04 7.022245500E+04 9.565334509E+01 6.670169498E+00
 -4.185333691E-02 -7.219550607E-04 7.030428906E+04 9.466916431E+01 7.211326719E+00
 -3.623578990E-02 -7.747979056E-04 7.039838855E+04 9.352297301E+01 7.811070350E+00
 -3.116329614E-02 -6.749660043E-04 7.050622755E+04 9.218808752E+01 8.491766645E+00
 -2.657917166E-02 -5.852542235E-04 7.063082694E+04 9.062047125E+01 9.260388370E+00
 -2.244243907E-02 -5.047892987E-04 7.077600567E+04 8.875350958E+01 1.012733203E+01
 -1.871531919E-02 -4.327583362E-04 7.094617738E+04 8.651389048E+01 1.111427786E+01
 -1.536299250E-02 -3.684066890E-04 7.114636037E+04 8.378314942E+01 1.226041915E+01
 -1.235337771E-02 -3.110356640E-04 7.138493203E+04 8.042112516E+01 1.359837765E+01
 -9.656926513E-03 -2.600000600E-04 7.166902491E+04 7.612612596E+01 1.523829838E+01
 -7.246433125E-03 -2.147055260E-04 7.201717722E+04 7.060947314E+01 1.720551769E+01
 -5.096857724E-03 -1.746057038E-04 7.242425789E+04 6.291189837E+01 1.992519993E+01
 -3.185162691E-03 -1.391989099E-04 7.291312491E+04 5.260938775E+01 2.335536899E+01
 -1.490160724E-03 -1.080234474E-04 7.330617272E+04 3.850386361E+01 3.015246198E+01
 7.626351982E-06 -8.064715534E-05 7.342299977E+04 3.007861673E+01 3.519409289E+01
 -4.913313371E+00 2.489252871E-01 6.969507393E+04 1.017613443E+02 1.092280140E-02
 -4.537949562E+00 2.350022252E-01 6.969506069E+04 1.017615693E+02 1.675266281E-02
 -4.190273809E+00 2.221124623E-01 6.969503669E+04 1.017620506E+02 3.019191882E-02
 -3.868297773E+00 2.101816908E-01 6.969501795E+04 1.017625096E+02 4.619446268E-02
 -3.570173104E+00 1.991408539E-01 6.969501079E+04 1.017628645E+02 6.358324491E-02
 -3.293125145E+00 1.841865606E-01 6.969503021E+04 1.017629870E+02 8.219255148E-02
 -3.036458682E+00 1.696141893E-01 6.969507557E+04 1.017628305E+02 1.020548836E-01
 -2.798935065E+00 1.561345747E-01 6.969513664E+04 1.017624769E+02 1.232265674E-01
 -2.579168725E+00 1.436685150E-01 6.969521582E+04 1.017618947E+02 1.458141601E-01
 -2.375872225E+00 1.321424217E-01 6.969531758E+04 1.017610402E+02 1.699593952E-01
 -2.187849423E+00 1.214879295E-01 6.969544479E+04 1.017598812E+02 1.958153287E-01
 -2.013989103E+00 1.116415316E-01 6.969560131E+04 1.017583743E+02 2.235470733E-01
 -1.853259054E+00 1.025442404E-01 6.969579231E+04 1.017564633E+02 2.533362435E-01
 -1.704700543E+00 9.414127083E-02 6.969602379E+04 1.017540823E+02 2.853808253E-01
 -1.567423177E+00 8.638174570E-02 6.969630280E+04 1.017511533E+02 3.198954191E-01
 -1.440600124E+00 7.921842084E-02 6.969663769E+04 1.017475831E+02 3.571125136E-01
 -1.323463652E+00 7.260742921E-02 6.969703835E+04 1.017432616E+02 3.972836272E-01
 -1.215300985E+00 6.650804244E-02 6.969751641E+04 1.017380585E+02 4.406803983E-01
 -1.115450444E+00 6.088244886E-02 6.969808556E+04 1.017318206E+02 4.875958507E-01
 -1.023297853E+00 5.569554676E-02 6.969876186E+04 1.017243675E+02 5.383457565E-01
 -9.382731977E-01 5.091475193E-02 6.969956416E+04 1.017154873E+02 5.932700582E-01
 -8.598475088E-01 4.650981865E-02 6.970051451E+04 1.017049316E+02 6.527343510E-01
 -7.875299712E-01 4.245267306E-02 6.970163872E+04 1.016924093E+02 7.171314208E-01
 -7.208652263E-01 3.871725823E-02 6.970296692E+04 1.016775804E+02 7.868828598E-01
 -6.594308651E-01 3.527939023E-02 6.970453427E+04 1.016600475E+02 8.624407500E-01
 -6.028350955E-01 3.211662435E-02 6.970638168E+04 1.016393474E+02 9.442893370E-01
 -5.507145714E-01 2.920813092E-02 6.970855677E+04 1.016149406E+02 1.032946843E+00
 -5.027323738E-01 2.653458016E-02 6.971111480E+04 1.015861998E+02 1.128967066E+00
 -4.585761320E-01 2.407803539E-02 6.971411990E+04 1.015523962E+02 1.232942145E+00
 -4.179562769E-01 2.182185411E-02 6.971764628E+04 1.015126855E+02 1.345504128E+00
 -3.806044158E-01 1.975059654E-02 6.972177972E+04 1.014660918E+02 1.467328030E+00
 -3.462718211E-01 1.784994096E-02 6.972661891E+04 1.014114727E+02 1.599131531E+00
 -3.147280249E-01 1.610660553E-02 6.973227762E+04 1.013475185E+02 1.741670063E+00
 -2.857595120E-01 1.450827603E-02 6.973888772E+04 1.012727420E+02 1.895764430E+00
 -2.591685051E-01 1.304353920E-02 6.974660059E+04 1.011854031E+02 2.062313113E+00