TITLE     = "fluent22.1.0  build-id: 10213"
VARIABLES = "X"
"Y"
"Pressure"
"X Velocity"
"Y Velocity"
DATASETAUXDATA Common.DensityVar="23"
DATASETAUXDATA Common.PressureVar="3"
DATASETAUXDATA Common.TemperatureVar="12"
DATASETAUXDATA Common.TurbulentDynamicViscosityVar="17"
DATASETAUXDATA Common.UVar="5"
DATASETAUXDATA Common.VectorVarsAreVelocity="TRUE"
DATASETAUXDATA Common.ViscosityVar="25"
DATASETAUXDATA Common.VVar="7"
ZONE T="fluid"
 STRANDID=1, SOLUTIONTIME=0.865
 Nodes=10240, Elements=10080, ZONETYPE=FEQuadrilateral
 DATAPACKING=POINT
 DT=(DOUBLE DOUBLE DOUBLE DOUBLE DOUBLE )
 -4.856290020E+00 -7.872354469E-01 6.969904298E+04 1.017457798E+02 1.026217425E-02
 -4.486963695E+00 -7.104108586E-01 6.969916793E+04 1.017438111E+02 1.689930847E-02
 -4.884823481E+00 -5.813004056E-01 6.969824953E+04 1.017488491E+02 1.111479247E-02
 -4.512977283E+00 -5.225305884E-01 6.969834422E+04 1.017473417E+02 1.778752295E-02
 -4.144879775E+00 -6.392453331E-01 6.969938953E+04 1.017400010E+02 3.225125215E-02
 -4.168559400E+00 -4.680882045E-01 6.969851303E+04 1.017444245E+02 3.319743285E-02
 -3.828081942E+00 -5.733327289E-01 6.969956356E+04 1.017363576E+02 5.057891953E-02
 -3.849600161E+00 -4.176626833E-01 6.969864541E+04 1.017416330E+02 5.157101379E-02
 -3.534751610E+00 -5.122954037E-01 6.969975257E+04 1.017326458E+02 7.046530005E-02
 -3.554268565E+00 -3.709652871E-01 6.969879127E+04 1.017387769E+02 7.152091159E-02
 -3.260681816E+00 -4.701064177E-01 6.970003083E+04 1.017283820E+02 9.161788099E-02
 -3.278638432E+00 -3.401332863E-01 6.969901584E+04 1.017354211E+02 9.278606898E-02
 -3.006524783E+00 -4.337848399E-01 6.970038341E+04 1.017235173E+02 1.140610447E-01
 -3.023086271E+00 -3.139253985E-01 6.969930698E+04 1.017315142E+02 1.153876341E-01
 -2.771323234E+00 -4.001653559E-01 6.970077363E+04 1.017183253E+02 1.379333186E-01
 -2.786593660E+00 -2.896652981E-01 6.969963109E+04 1.017273102E+02 1.394405617E-01
 -2.553705170E+00 -3.690525157E-01 6.970120854E+04 1.017127145E+02 1.633584345E-01
 -2.567781066E+00 -2.672121309E-01 6.969999436E+04 1.017227265E+02 1.650671564E-01
 -2.352395761E+00 -3.402647062E-01 6.970169781E+04 1.017065823E+02 1.904779392E-01
 -2.365366659E+00 -2.464350128E-01 6.970040598E+04 1.017176670E+02 1.924131369E-01
 -2.166210577E+00 -3.136331858E-01 6.970224564E+04 1.016998685E+02 2.194517289E-01
 -2.178159506E+00 -2.272123352E-01 6.970086967E+04 1.017120778E+02 2.216414778E-01
 -1.994049285E+00 -2.890011876E-01 6.970285875E+04 1.016924898E+02 2.504533977E-01
 -2.005053232E+00 -2.094311174E-01 6.970139147E+04 1.017058840E+02 2.529289736E-01
 -1.834889776E+00 -2.662230841E-01 6.970354561E+04 1.016843482E+02 2.836712926E-01
 -1.845020118E+00 -1.929864060E-01 6.970197930E+04 1.016989948E+02 2.864676880E-01
 -1.687782706E+00 -2.451636096E-01 6.970431519E+04 1.016753388E+02 3.193089505E-01
 -1.697105606E+00 -1.777807141E-01 6.970264159E+04 1.016913126E+02 3.224656352E-01
 -1.551846399E+00 -2.256971368E-01 6.970517754E+04 1.016653442E+02 3.575858719E-01
 -1.560423181E+00 -1.637235005E-01 6.970338781E+04 1.016827275E+02 3.611474019E-01
 -1.426262114E+00 -2.077070034E-01 6.970614419E+04 1.016542310E+02 3.987378993E-01
 -1.434149606E+00 -1.507306848E-01 6.970422889E+04 1.016731139E+02 4.027548139E-01
 -1.310269636E+00 -1.910848853E-01 6.970722820E+04 1.016418488E+02 4.430177928E-01
 -1.317520493E+00 -1.387241963E-01 6.970517734E+04 1.016623286E+02 4.475476212E-01
 -1.203163164E+00 -1.757302133E-01 6.970844445E+04 1.016280266E+02 4.906959536E-01
 -1.209826168E+00 -1.276315537E-01 6.970624743E+04 1.016502082E+02 4.958042805E-01
 -1.104287495E+00 -1.615496306E-01 6.970980992E+04 1.016125700E+02 5.420611431E-01
 -1.110407829E+00 -1.173854750E-01 6.970745557E+04 1.016365655E+02 5.478227935E-01
 -1.013034466E+00 -1.484564877E-01 6.971134405E+04 1.015952569E+02 5.974211136E-01
 -1.018653975E+00 -1.079235133E-01 6.970882058E+04 1.016211859E+02 6.039215127E-01
 -9.288396372E-01 -1.363703718E-01 6.971306906E+04 1.015758337E+02 6.571032972E-01
 -9.339970687E-01 -9.918771892E-02 6.971036410E+04 1.016038226E+02 6.644400509E-01
 -8.511792188E-01 -1.252166703E-01 6.971501040E+04 1.015540100E+02 7.214552403E-01
 -8.559104447E-01 -9.112432426E-02 6.971211101E+04 1.015841920E+02 7.297400488E-01
 -7.795671980E-01 -1.149261625E-01 6.971719730E+04 1.015294529E+02 7.908456231E-01
 -7.839054225E-01 -8.368345077E-02 6.971408993E+04 1.015619680E+02 8.002060075E-01
 -7.135526725E-01 -1.054346417E-01 6.971966324E+04 1.015017801E+02 8.656645705E-01
 -7.175286248E-01 -7.681883610E-02 6.971633382E+04 1.015367747E+02 8.762458239E-01
 -6.527173674E-01 -9.668256145E-02 6.972244673E+04 1.014705532E+02 9.463237183E-01
 -6.563594809E-01 -7.048757998E-02 6.971888061E+04 1.015081795E+02 9.582921441E-01
 -5.966733251E-01 -8.861470778E-02 6.972559196E+04 1.014352689E+02 1.033257116E+00
 -6.000079037E-01 -6.464990763E-02 6.972177394E+04 1.014756839E+02 1.046802964E+00
 -5.450607563E-01 -8.117989281E-02 6.972914959E+04 1.013953456E+02 1.126922911E+00
 -5.481121290E-01 -5.926894928E-02 6.972506406E+04 1.014387143E+02 1.142260781E+00
 -4.975460402E-01 -7.433066995E-02 6.973317787E+04 1.013501176E+02 1.227799051E+00
 -5.003367047E-01 -5.431053474E-02 6.972880887E+04 1.013966097E+02 1.245176680E+00
 -4.538198648E-01 -6.802306837E-02 6.973774364E+04 1.012988172E+02 1.336385173E+00
 -4.563706210E-01 -4.974300180E-02 6.973307477E+04 1.013486040E+02 1.356087661E+00
 -4.135954970E-01 -6.221634546E-02 6.974292387E+04 1.012405674E+02 1.453207974E+00
 -4.159255707E-01 -4.553701758E-02 6.973793793E+04 1.012938170E+02 1.475553328E+00
 -3.766071732E-01 -5.687275613E-02 6.974880730E+04 1.011743555E+02 1.578825937E+00
 -3.787343313E-01 -4.166541176E-02 6.974348660E+04 1.012312478E+02 1.604163737E+00
 -3.426086034E-01 -5.195733756E-02 6.975549525E+04 1.010990120E+02 1.713814485E+00
 -3.445492602E-01 -3.810302095E-02 6.974982238E+04 1.011597325E+02 1.742554721E+00
 -3.113715788E-01 -4.743770850E-02 6.976310371E+04 1.010132000E+02 1.858765216E+00
 -3.131408958E-01 -3.482654333E-02 6.975706112E+04 1.010779271E+02 1.891383735E+00
 -2.826846781E-01 -4.328388193E-02 6.977176631E+04 1.009153763E+02 2.014305475E+00
 -2.842966557E-01 -3.181440287E-02 6.976533562E+04 1.009842950E+02 2.051326151E+00
 -2.563520643E-01 -3.946809040E-02 6.978163648E+04 1.008037645E+02 2.181091931E+00
 -2.578196272E-01 -2.904662260E-02 6.977479880E+04 1.008770619E+02 2.223105167E+00
 -2.321923655E-01 -3.596462298E-02 6.979288996E+04 1.006763229E+02 2.359808356E+00
 -2.335274420E-01 -2.650470616E-02 6.978562623E+04 1.007541851E+02 2.407484583E+00
 -2.100376353E-01 -3.274967338E-02 6.980572824E+04 1.005307010E+02 2.551171153E+00
 -2.112512311E-01 -2.417152740E-02 6.979801891E+04 1.006133154E+02 2.605266316E+00
 -1.897323858E-01 -2.980119838E-02 6.982038238E+04 1.003641916E+02 2.755933952E+00
 -1.908346518E-01 -2.203122739E-02 6.981220725E+04 1.004517480E+02 2.817298332E+00
 -1.711326885E-01 -2.709878610E-02 6.983711730E+04 1.001736745E+02 2.974892135E+00
 -1.721329851E-01 -2.006911860E-02 6.982845535E+04 1.002663652E+02 3.044482683E+00
 -1.541053400E-01 -2.462353359E-02 6.985623682E+04 9.995554929E+01 3.208887766E+00
 -1.550122950E-01 -1.827159579E-02 6.984706602E+04 1.000535707E+02 3.287781458E+00
 -1.385270849E-01 -2.235793328E-02 6.987808963E+04 9.970565459E+01 3.458820446E+00
 -1.393486487E-01 -1.662605351E-02 6.986838672E+04 9.980920731E+01 3.548229804E+00
 -1.242838951E-01 -2.028576784E-02 6.990307617E+04 9.941917164E+01 3.725646485E+00
 -1.250273913E-01 -1.512080971E-02 6.989281631E+04 9.952846383E+01 3.826936637E+00
 -1.112702996E-01 -1.839201298E-02 6.993165664E+04 9.909051199E+01 4.010396693E+00
 -1.119424720E-01 -1.374503534E-02 6.992081305E+04 9.920576047E+01 4.125106845E+00
 -9.938876231E-02 -1.666274791E-02 6.996436169E+04 9.871315702E+01 4.314188907E+00
 -9.999581834E-02 -1.248868958E-02 6.995290515E+04 9.883458616E+01 4.444059222E+00
 -8.854910331E-02 -1.508507290E-02 7.000180614E+04 9.827947227E+01 4.638229467E+00
 -8.909675503E-02 -1.134246047E-02 6.998970455E+04 9.840731741E+01 4.785230702E+00
 -7.866796242E-02 -1.364703364E-02 7.004470319E+04 9.778045222E+01 4.983816883E+00
 -7.916146379E-02 -1.029771057E-02 7.003192015E+04 9.791497565E+01 5.150193642E+00
 -6.966830036E-02 -1.233755171E-02 7.009388461E+04 9.720547523E+01 5.352312012E+00
 -7.011248220E-02 -9.346427372E-03 7.008037859E+04 9.734696622E+01 5.540668217E+00
 -6.147893585E-02 -1.114636117E-02 7.015031904E+04 9.654180829E+01 5.745135277E+00
 -6.187823812E-02 -8.481178108E-03 7.013604625E+04 9.669053572E+01 5.958528660E+00
 -5.403411578E-02 -1.006395039E-02 7.021515494E+04 9.577433928E+01 6.163865265E+00
 -5.439261757E-02 -7.695068586E-03 7.020006840E+04 9.593055757E+01 6.405808022E+00
 -4.727311622E-02 -9.081508221E-03 7.028971648E+04 9.488417986E+01 6.610118723E+00
 -4.759456352E-02 -6.981705347E-03 7.027376311E+04 9.504813811E+01 6.884648531E+00
 -4.113987211E-02 -8.190875206E-03 7.037552197E+04 9.385155805E+01 7.087276667E+00
 -4.142770349E-02 -6.335161366E-03 7.035863333E+04 9.402365556E+01 7.398978923E+00
 -3.559084958E-02 -7.336024869E-03 7.047381705E+04 9.265311459E+01 7.615052999E+00
 -3.584687377E-02 -5.705556116E-03 7.045587585E+04 9.283415692E+01 7.968407090E+00
 -3.060545161E-02 -6.349767976E-03 7.058601092E+04 9.126234948E+01 8.219693290E+00
 -3.082642022E-02 -4.939423572E-03 7.056686756E+04 9.145341790E+01 8.618773265E+00
 -2.610005909E-02 -5.459081884E-03 7.071525451E+04 8.963402047E+01 8.904484043E+00
 -2.628934459E-02 -4.247660458E-03 7.069473391E+04 8.983654561E+01 9.354286591E+00
 -2.203439511E-02 -4.655915172E-03 7.086552891E+04 8.769842479E+01 9.672428555E+00
 -2.219508723E-02 -3.623995973E-03 7.084341793E+04 8.791370168E+01 1.018025267E+01
 -1.837132592E-02 -3.932835938E-03 7.104131614E+04 8.538141837E+01 1.054328602E+01
 -1.850625378E-02 -3.062639714E-03 7.101738479E+04 8.561171042E+01 1.111748058E+01
 -1.507662657E-02 -3.282988494E-03 7.124771967E+04 8.255986948E+01 1.154839037E+01
 -1.518837910E-02 -2.558248748E-03 7.122159910E+04 8.280626782E+01 1.220120376E+01
 -1.211876349E-02 -2.700052767E-03 7.149321000E+04 7.909599507E+01 1.272075426E+01
 -1.220970834E-02 -2.105896612E-03 7.146461929E+04 7.936438544E+01 1.346257334E+01
 -9.468692781E-03 -2.178206220E-03 7.178493007E+04 7.466462399E+01 1.415163202E+01
 -9.540993783E-03 -1.701044153E-03 7.175301221E+04 7.495088628E+01 1.500582569E+01
 -7.099673129E-03 -1.712088058E-03 7.214128554E+04 6.903259612E+01 1.585765165E+01
 -7.155306428E-03 -1.339512020E-03 7.210633923E+04 6.934983825E+01 1.683840636E+01
 -4.987092304E-03 -1.296765558E-03 7.255490985E+04 6.106805194E+01 1.826422302E+01
 -5.027861281E-03 -1.017454692E-03 7.251321571E+04 6.139797381E+01 1.943040499E+01
 -3.108306209E-03 -9.277019683E-04 7.305139193E+04 5.071127432E+01 2.139504019E+01
 -3.135855263E-03 -7.313355205E-04 7.300500383E+04 5.109875753E+01 2.280541823E+01
 -1.442489564E-03 -6.007252186E-04 7.343462686E+04 3.577201759E+01 2.847030648E+01
 -1.458316849E-03 -4.779020234E-04 7.337708921E+04 3.626238136E+01 3.007046213E+01
 2.950318352E-05 -3.119902977E-04 7.353634365E+04 2.633121909E+01 3.391504445E+01
 2.403397564E-05 -2.541545121E-04 7.346655450E+04 2.685216067E+01 3.558642864E+01
 -4.904860300E+00 -3.743658139E-01 6.969744500E+04 1.017519920E+02 1.183027564E-02
 -4.531145598E+00 -3.337276304E-01 6.969751143E+04 1.017509334E+02 1.853193075E-02
 -4.184997072E+00 -2.960795497E-01 6.969763039E+04 1.017488963E+02 3.398589856E-02
 -3.864435146E+00 -2.612070024E-01 6.969772359E+04 1.017469542E+02 5.238732388E-02
 -3.567619616E+00 -2.289105197E-01 6.969782898E+04 1.017449468E+02 7.237288742E-02
 -3.290907851E+00 -2.094926512E-01 6.969800066E+04 1.017424990E+02 9.371947559E-02
 -3.034403842E+00 -1.934506378E-01 6.969822964E+04 1.017395569E+02 1.164527196E-01
 -2.797030385E+00 -1.785982095E-01 6.969848714E+04 1.017363414E+02 1.406604661E-01
 -2.577402809E+00 -1.648493903E-01 6.969877834E+04 1.017327823E+02 1.664616485E-01
 -2.374234508E+00 -1.521242878E-01 6.969911159E+04 1.017287939E+02 1.940066049E-01
 -2.186330110E+00 -1.403486693E-01 6.969949033E+04 1.017243291E+02 2.234606332E-01
 -2.012579119E+00 -1.294535670E-01 6.969991998E+04 1.017193214E+02 2.550027332E-01
 -1.851949987E+00 -1.193749112E-01 6.970040780E+04 1.017136885E+02 2.888287183E-01
 -1.703484599E+00 -1.100531889E-01 6.970096165E+04 1.017073406E+02 3.251512303E-01
 -1.566293137E+00 -1.014331259E-01 6.970159040E+04 1.017001756E+02 3.642001117E-01
 -1.439549300E+00 -9.346339184E-02 6.970230437E+04 1.016920756E+02 4.062233106E-01
 -1.322485849E+00 -8.609632505E-02 6.970311543E+04 1.016829052E+02 4.514876892E-01
 -1.214390467E+00 -7.928767703E-02 6.970403724E+04 1.016725088E+02 5.002798979E-01
 -1.114601901E+00 -7.299637450E-02 6.970508554E+04 1.016607067E+02 5.529073648E-01
 -1.022506368E+00 -6.718429815E-02 6.970627852E+04 1.016472919E+02 6.096992979E-01
 -9.375342207E-01 -6.181607664E-02 6.970763715E+04 1.016320253E+02 6.710077195E-01
 -8.591568298E-01 -5.685889495E-02 6.970918566E+04 1.016146309E+02 7.372084632E-01
 -7.868836953E-01 -5.228231594E-02 6.971095202E+04 1.015947899E+02 8.087022619E-01
 -7.202597514E-01 -4.805811414E-02 6.971296851E+04 1.015721337E+02 8.859158302E-01
 -6.588628610E-01 -4.416012102E-02 6.971527243E+04 1.015462369E+02 9.693028990E-01
 -6.023014843E-01 -4.056408065E-02 6.971790679E+04 1.015166079E+02 1.059345031E+00
 -5.502125097E-01 -3.724751522E-02 6.972092121E+04 1.014826790E+02 1.156552994E+00
 -5.022592357E-01 -3.418959951E-02 6.972437295E+04 1.014437949E+02 1.261467696E+00
 -4.581294942E-01 -3.137104366E-02 6.972832799E+04 1.013992012E+02 1.374661497E+00
 -4.175339039E-01 -2.877398370E-02 6.973286206E+04 1.013480197E+02 1.496740011E+00
 -3.802042470E-01 -2.638187912E-02 6.973806239E+04 1.012892448E+02 1.628335759E+00
 -3.458919584E-01 -2.417941707E-02 6.974402971E+04 1.012217258E+02 1.770115028E+00
 -3.143667213E-01 -2.215242270E-02 6.975087999E+04 1.011441248E+02 1.922804477E+00
 -2.854151611E-01 -2.028777519E-02 6.975874581E+04 1.010549042E+02 2.087161566E+00
 -2.588396311E-01 -1.857332908E-02 6.976777889E+04 1.009522983E+02 2.263966153E+00
 -2.344570832E-01 -1.699784078E-02 6.977815386E+04 1.008342696E+02 2.454057492E+00
 -2.120980185E-01 -1.555089970E-02 6.979007115E+04 1.006984720E+02 2.658331437E+00
 -1.916055114E-01 -1.422286407E-02 6.980376017E+04 1.005422061E+02 2.877738481E+00
 -1.728343027E-01 -1.300480113E-02 6.981948373E+04 1.003623620E+02 3.113293744E+00
 -1.556499568E-01 -1.188843154E-02 6.983754310E+04 1.001553527E+02 3.366088278E+00
 -1.399280785E-01 -1.086607799E-02 6.985828378E+04 9.991703168E+01 3.637303293E+00
 -1.255535848E-01 -9.930617697E-03 6.988210238E+04 9.964260181E+01 3.928216552E+00
 -1.124200292E-01 -9.075438911E-03 6.990945423E+04 9.932650017E+01 4.240227177E+00
 -1.004289733E-01 -8.294401060E-03 6.994086401E+04 9.896223566E+01 4.574877649E+00
 -8.948940346E-02 -7.581798532E-03 6.997693931E+04 9.854221043E+01 4.933868224E+00
 -7.951718873E-02 -6.932327826E-03 7.001838391E+04 9.805747389E+01 5.319084340E+00
 -7.043457790E-02 -6.341057873E-03 7.006601842E+04 9.749746564E+01 5.732618541E+00
 -6.216973211E-02 -5.803403348E-03 7.012080161E+04 9.684947059E+01 6.176813770E+00
 -5.465629115E-02 -5.315100575E-03 7.018386965E+04 9.609840859E+01 6.654287059E+00
 -4.783297071E-02 -4.872185699E-03 7.025652980E+04 9.522541354E+01 7.167957064E+00
 -4.164318861E-02 -4.470975071E-03 7.034027628E+04 9.421087059E+01 7.722311006E+00
 -3.604023845E-02 -4.067753178E-03 7.043629347E+04 9.303205771E+01 8.335437471E+00
 -3.099349799E-02 -3.522765251E-03 7.054592050E+04 9.166304406E+01 9.032787992E+00
 -2.643266395E-02 -3.030849211E-03 7.067223758E+04 9.005936568E+01 9.821134157E+00
 -2.231696473E-02 -2.587522490E-03 7.081913638E+04 8.815095135E+01 1.070869452E+01
 -1.860881056E-02 -2.188643295E-03 7.099106717E+04 8.586576536E+01 1.171727735E+01
 -1.527355630E-02 -1.830388032E-03 7.119280209E+04 8.307804779E+01 1.288712272E+01
 -1.227928121E-02 -1.509229966E-03 7.143302177E+04 7.966051066E+01 1.424816316E+01
 -9.596584808E-03 -1.221919005E-03 7.171745248E+04 7.526924156E+01 1.591912905E+01
 -7.198397415E-03 -9.654625204E-04 7.206706812E+04 6.970513551E+01 1.789717616E+01
 -5.059804537E-03 -7.371070908E-04 7.246605439E+04 6.177292683E+01 2.068308170E+01
 -3.157883924E-03 -5.343207185E-04 7.295205478E+04 5.154791754E+01 2.429363101E+01
 -1.471554424E-03 -3.547747214E-04 7.331266937E+04 3.681798825E+01 3.176021930E+01
 1.856476775E-05 -1.963187265E-04 7.338970762E+04 2.742890156E+01 3.736682701E+01
 -4.916318661E+00 -1.667794339E-01 6.969663907E+04 1.017551742E+02 1.229546038E-02
 -4.541393093E+00 -1.443230957E-01 6.969667718E+04 1.017545677E+02 1.901829396E-02
 -4.194123050E+00 -1.235157947E-01 6.969674537E+04 1.017534189E+02 3.451732232E-02
 -3.872522535E+00 -1.042392405E-01 6.969679826E+04 1.017523269E+02 5.297260249E-02
 -3.574745378E+00 -8.638347979E-02 6.969686289E+04 1.017511576E+02 7.302632847E-02
 -3.297435348E+00 -7.841729777E-02 6.969698140E+04 1.017496090E+02 9.447145491E-02
 -3.040427034E+00 -7.257519844E-02 6.969714768E+04 1.017476281E+02 1.173346196E-01
 -2.802586897E+00 -6.716193957E-02 6.969733809E+04 1.017453989E+02 1.416876784E-01
 -2.582527540E+00 -6.214660752E-02 6.969755676E+04 1.017428649E+02 1.676491529E-01
 -2.378959826E+00 -5.750047290E-02 6.969781096E+04 1.017399525E+02 1.953740898E-01
 -2.190686033E+00 -5.319683806E-02 6.969810393E+04 1.017366200E+02 2.250313281E-01
 -2.016593479E+00 -4.921089548E-02 6.969844048E+04 1.017328091E+02 2.568032064E-01
 -1.855648587E+00 -4.551959634E-02 6.969882720E+04 1.017284459E+02 2.908896931E-01
 -1.706891357E+00 -4.210152844E-02 6.969927134E+04 1.017234480E+02 3.275082134E-01
 -1.569430223E+00 -3.893680284E-02 6.969978117E+04 1.017177214E+02 3.668939153E-01
 -1.442437256E+00 -3.600694858E-02 6.970036634E+04 1.017111559E+02 4.093008376E-01
 -1.325143710E+00 -3.329481482E-02 6.970103808E+04 1.017036240E+02 4.550029015E-01
 -1.216835868E+00 -3.078447993E-02 6.970180938E+04 1.016949780E+02 5.042948868E-01
 -1.116851174E+00 -2.846116704E-02 6.970269529E+04 1.016850466E+02 5.574935610E-01
 -1.024574642E+00 -2.631116545E-02 6.970371331E+04 1.016736306E+02 6.149388580E-01
 -9.394355013E-01 -2.432175751E-02 6.970488369E+04 1.016604994E+02 6.769950978E-01
 -8.609040853E-01 -2.248115064E-02 6.970622995E+04 1.016453850E+02 7.440522343E-01
 -7.884889291E-01 -2.077841392E-02 6.970777933E+04 1.016279769E+02 8.165271355E-01
 -7.217340726E-01 -1.920341899E-02 6.970956339E+04 1.016079148E+02 8.948648510E-01
 -6.602165488E-01 -1.774678486E-02 6.971161869E+04 1.015847812E+02 9.795399605E-01
 -6.035440483E-01 -1.639982637E-02 6.971398753E+04 1.015580924E+02 1.071058028E+00
 -5.513527456E-01 -1.515450584E-02 6.971671882E+04 1.015272885E+02 1.169956572E+00
 -5.033052775E-01 -1.400338781E-02 6.971986909E+04 1.014917216E+02 1.276807052E+00
 -4.590888621E-01 -1.293959642E-02 6.972350358E+04 1.014506429E+02 1.392216418E+00
 -4.184135493E-01 -1.195677531E-02 6.972769752E+04 1.014031889E+02 1.516827084E+00
 -3.810105938E-01 -1.104904983E-02 6.973253760E+04 1.013483565E+02 1.651323554E+00
 -3.466309417E-01 -1.021099124E-02 6.973812335E+04 1.012849911E+02 1.796422052E+00
 -3.150438230E-01 -9.437582899E-03 6.974456964E+04 1.012117687E+02 1.952878964E+00
 -2.860354434E-01 -8.724188244E-03 6.975200898E+04 1.011271616E+02 2.121523555E+00
 -2.594077671E-01 -8.066520476E-03 6.976059271E+04 1.010294087E+02 2.303227724E+00
 -2.349773856E-01 -7.460613902E-03 6.977049401E+04 1.009164808E+02 2.498895045E+00
 -2.125744660E-01 -6.902796938E-03 6.978191196E+04 1.007860404E+02 2.709499601E+00
 -1.920417735E-01 -6.389666720E-03 6.979507492E+04 1.006353953E+02 2.936091402E+00
 -1.732337627E-01 -5.918065411E-03 6.981024422E+04 1.004614461E+02 3.179794414E+00
 -1.560157327E-01 -5.485058208E-03 6.982771918E+04 1.002606195E+02 3.441820206E+00
 -1.402630429E-01 -5.087913102E-03 6.984784299E+04 1.000287868E+02 3.723485671E+00
 -1.258603834E-01 -4.724082435E-03 6.987100936E+04 9.976117001E+01 4.026223729E+00
 -1.127010977E-01 -4.391186271E-03 6.989767020E+04 9.945223106E+01 4.351610844E+00
 -1.006865531E-01 -4.086997593E-03 6.992834591E+04 9.909551322E+01 4.701391569E+00
 -8.972555635E-02 -3.809429289E-03 6.996363868E+04 9.868345890E+01 5.077500959E+00
 -7.973381086E-02 -3.556522864E-03 7.000424584E+04 9.820716376E+01 5.482106716E+00
 -7.063341215E-02 -3.326438786E-03 7.005098021E+04 9.765612520E+01 5.917643208E+00
 -6.235237997E-02 -3.117448335E-03 7.010479096E+04 9.701769138E+01 6.386867520E+00
 -5.482422359E-02 -2.927926729E-03 7.016680388E+04 9.627685583E+01 6.892903611E+00
 -4.798753831E-02 -2.756347324E-03 7.023831333E+04 9.541481096E+01 7.439326395E+00
 -4.178563092E-02 -2.601276795E-03 7.032080158E+04 9.441200066E+01 8.031089770E+00
 -3.617034089E-02 -2.425180159E-03 7.041543666E+04 9.324601403E+01 8.686119070E+00
 -3.110616659E-02 -2.101998381E-03 7.052353066E+04 9.189093121E+01 9.429397284E+00
 -2.652957510E-02 -1.810529237E-03 7.064814690E+04 9.030257398E+01 1.026856922E+01
 -2.239965431E-02 -1.548083177E-03 7.079310345E+04 8.841084100E+01 1.121469078E+01
 -1.867868496E-02 -1.312171451E-03 7.096283753E+04 8.614513184E+01 1.229050701E+01
 -1.533190260E-02 -1.100493939E-03 7.116188922E+04 8.337810392E+01 1.354075179E+01
 -1.232727658E-02 -9.109274796E-04 7.139914311E+04 7.998779726E+01 1.499555784E+01
 -9.635305170E-03 -7.415146381E-04 7.167932831E+04 7.562284662E+01 1.678807860E+01
 -7.228825482E-03 -5.904528623E-04 7.202494240E+04 7.010077637E+01 1.891215976E+01
 -5.082837203E-03 -4.560839577E-04 7.241547076E+04 6.219605125E+01 2.189693744E+01
 -3.174339108E-03 -3.368835004E-04 7.289490847E+04 5.205336750E+01 2.574596096E+01
 -1.482177385E-03 -2.314493060E-04 7.324417535E+04 3.744019447E+01 3.342425496E+01
 1.309555987E-05 -1.384829409E-04 7.330915661E+04 2.807982485E+01 3.912953899E+01
 -4.919121367E+00 4.110405248E-02 6.969583035E+04 1.017583807E+02 1.258731482E-02
 -4.543648488E+00 4.535550546E-02 6.969584013E+04 1.017582244E+02 1.933618917E-02
 -4.195871532E+00 4.930073623E-02 6.969585721E+04 1.017579619E+02 3.489005964E-02
 -3.873801599E+00 5.296160070E-02 6.969586964E+04 1.017577188E+02 5.340232192E-02
 -3.575589819E+00 5.635842804E-02 6.969589375E+04 1.017573874E+02 7.351307504E-02
 -3.298169288E+00 5.285535585E-02 6.969595889E+04 1.017567447E+02 9.503046482E-02
 -3.041108240E+00 4.848200696E-02 6.969606172E+04 1.017557372E+02 1.179900186E-01
 -2.803219312E+00 4.444172453E-02 6.969618429E+04 1.017545066E+02 1.424567968E-01
 -2.583114821E+00 4.071027529E-02 6.969632975E+04 1.017530092E+02 1.685491378E-01
 -2.379505365E+00 3.726514730E-02 6.969650412E+04 1.017511852E+02 1.964251932E-01
 -2.191192973E+00 3.408543036E-02 6.969671039E+04 1.017489982E+02 2.262564756E-01
 -2.017064735E+00 3.115170431E-02 6.969695281E+04 1.017463980E+02 2.582280496E-01
 -1.856086861E+00 2.844593448E-02 6.969723728E+04 1.017433191E+02 2.925435302E-01
 -1.707299154E+00 2.595137412E-02 6.969757039E+04 1.017396876E+02 3.294248674E-01
 -1.569809862E+00 2.365247323E-02 6.969795977E+04 1.017354171E+02 3.691124761E-01
 -1.442790888E+00 2.153479341E-02 6.969841440E+04 1.017304060E+02 4.118665302E-01
 -1.325473328E+00 1.958492843E-02 6.969894480E+04 1.017245351E+02 4.579680879E-01
 -1.217143316E+00 1.779043009E-02 6.969956327E+04 1.017176651E+02 5.077201688E-01
 -1.117138162E+00 1.613973913E-02 6.970028413E+04 1.017096332E+02 5.614490236E-01
 -1.024842752E+00 1.462212075E-02 6.970112413E+04 1.017002491E+02 6.195054963E-01
 -9.396862002E-01 1.322760468E-02 6.970210276E+04 1.016892907E+02 6.822664320E-01
 -8.611387302E-01 1.194692933E-02 6.970324276E+04 1.016764992E+02 7.501361337E-01
 -7.887087767E-01 1.077148995E-02 6.970457057E+04 1.016615728E+02 8.235478731E-01
 -7.219402861E-01 9.693290453E-03 6.970611697E+04 1.016441603E+02 9.029654672E-01
 -6.604102049E-01 8.704898835E-03 6.970791770E+04 1.016238529E+02 9.888849022E-01
 -6.037261433E-01 7.799405892E-03 6.971001424E+04 1.016001759E+02 1.081835931E+00
 -5.515242014E-01 6.970387151E-03 6.971245470E+04 1.015725781E+02 1.182383790E+00
 -5.034669469E-01 6.211867833E-03 6.971529479E+04 1.015404201E+02 1.291131161E+00
 -4.592415338E-01 5.518290682E-03 6.971859894E+04 1.015029616E+02 1.408719760E+00
 -4.185579526E-01 4.884486551E-03 6.972244154E+04 1.014593453E+02 1.535832366E+00
 -3.811474028E-01 4.305647566E-03 6.972690855E+04 1.014085817E+02 1.673194834E+00
 -3.467607793E-01 3.777302741E-03 6.973209892E+04 1.013495239E+02 1.821584832E+00
 -3.151672647E-01 3.295295880E-03 6.973812620E+04 1.012808463E+02 1.981815875E+00
 -2.861530205E-01 2.855765587E-03 6.974512139E+04 1.012010294E+02 2.154751124E+00
 -2.595199698E-01 2.455127220E-03 6.975323557E+04 1.011083286E+02 2.341342671E+00
 -2.350846662E-01 2.090056567E-03 6.976264131E+04 1.010007252E+02 2.542598070E+00
 -2.126772414E-01 1.757475048E-03 6.977353586E+04 1.008758887E+02 2.759569931E+00
 -1.921404276E-01 1.454536215E-03 6.978614577E+04 1.007311395E+02 2.993396812E+00
 -1.733286489E-01 1.178613323E-03 6.980073068E+04 1.005633904E+02 3.245315072E+00
 -1.561071762E-01 9.272877293E-04 6.981758772E+04 1.003690839E+02 3.516661909E+00
 -1.403513423E-01 6.983379160E-04 6.983705729E+04 1.001441134E+02 3.808895394E+00
 -1.259458131E-01 4.897289261E-04 6.985952969E+04 9.988372493E+01 4.123607798E+00
 -1.127839094E-01 2.996020368E-04 6.988545273E+04 9.958241059E+01 4.462557299E+00
 -1.007669778E-01 1.262645242E-04 6.991534171E+04 9.923375563E+01 4.827699866E+00
 -8.980380567E-02 -3.182057919E-05 6.994979232E+04 9.883025323E+01 5.221217786E+00
 -7.981007865E-02 -1.760447895E-04 6.998949390E+04 9.836305897E+01 5.645573103E+00
 -7.070787598E-02 -3.076645795E-04 7.003524972E+04 9.782174521E+01 6.103550236E+00
 -6.242520242E-02 -4.278118319E-04 7.008799672E+04 9.719375205E+01 6.598331768E+00
 -5.489555352E-02 -5.375042459E-04 7.014884635E+04 9.646418569E+01 7.133555174E+00
 -4.805751202E-02 -6.376555781E-04 7.021907554E+04 9.561438795E+01 7.713445011E+00
 -4.185437322E-02 -7.290857056E-04 7.030015318E+04 9.462474850E+01 8.343577572E+00
 -3.623661245E-02 -7.804519908E-04 7.039325622E+04 9.347293357E+01 9.041488463E+00
 -3.116393700E-02 -6.793720257E-04 7.049968009E+04 9.213292073E+01 9.831445866E+00
 -2.657966096E-02 -5.886189234E-04 7.062244982E+04 9.056110709E+01 1.072216944E+01
 -2.244280381E-02 -5.072979897E-04 7.076527374E+04 8.868767582E+01 1.172754352E+01
 -1.871558329E-02 -4.345752392E-04 7.093258882E+04 8.644358991E+01 1.287125467E+01
 -1.536317691E-02 -3.696756521E-04 7.112866952E+04 8.369991064E+01 1.420225041E+01
 -1.235350056E-02 -3.118811822E-04 7.136266897E+04 8.033984593E+01 1.575043687E+01
 -9.657003273E-03 -2.605285136E-04 7.163821814E+04 7.600529099E+01 1.766099656E+01
 -7.246476843E-03 -2.150065631E-04 7.197945963E+04 7.053008269E+01 1.992643561E+01
 -5.096879210E-03 -1.747536859E-04 7.236110476E+04 6.266068335E+01 2.310157706E+01
 -3.185170733E-03 -1.392543013E-04 7.283371532E+04 5.261184853E+01 2.717446073E+01
 -1.490162239E-03 -1.080338797E-04 7.317139709E+04 3.812765198E+01 3.507493257E+01
 7.626351982E-06 -8.064715534E-05 7.322401325E+04 2.880219076E+01 4.089702584E+01
 -4.913313371E+00 2.489252871E-01 6.969501915E+04 1.017616001E+02 1.265347456E-02
 -4.537953283E+00 2.349763983E-01 6.969500036E+04 1.017618978E+02 1.941717049E-02
 -4.190280823E+00 2.220637737E-01 6.969496578E+04 1.017625298E+02 3.501122287E-02
 -3.868307684E+00 2.101128752E-01 6.969493723E+04 1.017631417E+02 5.358399667E-02
 -3.570185547E+00 1.990544348E-01 6.969492058E+04 1.017636521E+02 7.376963150E-02
 -3.293139797E+00 1.840847888E-01 6.969493201E+04 1.017639209E+02 9.537378189E-02
 -3.036475235E+00 1.694992030E-01 6.969497085E+04 1.017638943E+02 1.184314474E-01
 -2.798953234E+00 1.560083547E-01 6.969502496E+04 1.017636703E+02 1.430050754E-01
 -2.579188246E+00 1.435328806E-01 6.969509657E+04 1.017632180E+02 1.692156752E-01
 -2.375892858E+00 1.319990429E-01 6.969519035E+04 1.017624919E+02 1.972251176E-01
 -2.187870946E+00 1.213383383E-01 6.969530902E+04 1.017614612E+02 2.272083984E-01
 -2.014011314E+00 1.114871326E-01 6.969545630E+04 1.017600833E+02 2.593544265E-01
 -1.853281767E+00 1.023863203E-01 6.969563733E+04 1.017583022E+02 2.938711390E-01
 -1.704723587E+00 9.398100786E-02 6.969585803E+04 1.017560519E+02 3.309853186E-01
 -1.567446398E+00 8.622021747E-02 6.969612538E+04 1.017532547E+02 3.709428372E-01
 -1.440623379E+00 7.905661187E-02 6.969644763E+04 1.017498173E+02 4.140100945E-01
 -1.323486811E+00 7.244623755E-02 6.969683460E+04 1.017456295E+02 4.604753024E-01
 -1.215323931E+00 6.634828568E-02 6.969729782E+04 1.017405607E+02 5.106497117E-01
 -1.115473069E+00 6.072486935E-02 6.969785086E+04 1.017344573E+02 5.648690388E-01
 -1.023320062E+00 5.554081627E-02 6.969850965E+04 1.017271381E+02 6.234950035E-01
 -9.382949023E-01 5.076347567E-02 6.969929288E+04 1.017183905E+02 6.869169326E-01
 -8.598686319E-01 4.636253869E-02 6.970022246E+04 1.017079651E+02 7.555534360E-01
 -7.875504437E-01 4.230987128E-02 6.970132396E+04 1.016955698E+02 8.298541613E-01
 -7.208849875E-01 3.857935882E-02 6.970262728E+04 1.016808631E+02 9.103016117E-01
 -6.594498627E-01 3.514676176E-02 6.970416729E+04 1.016634461E+02 9.974130306E-01
 -6.028532849E-01 3.198958149E-02 6.970598457E+04 1.016428538E+02 1.091742366E+00
 -5.507319156E-01 2.908693593E-02 6.970812630E+04 1.016185444E+02 1.193882309E+00
 -5.027488432E-01 2.641944416E-02 6.971064730E+04 1.015898885E+02 1.304466405E+00
 -4.585917044E-01 2.396911950E-02 6.971361105E+04 1.015561549E+02 1.424171529E+00
 -4.179709371E-01 2.171927059E-02 6.971709106E+04 1.015164963E+02 1.553719598E+00
 -3.806181555E-01 1.965440993E-02 6.972117225E+04 1.014699302E+02 1.693881711E+00
 -3.462846386E-01 1.776016936E-02 6.972595271E+04 1.014153232E+02 1.845479198E+00
 -3.147399251E-01 1.602322205E-02 6.973154530E+04 1.013513624E+02 2.009393293E+00
 -2.857705060E-01 1.443121056E-02 6.973807946E+04 1.012765241E+02 2.186552970E+00
 -2.591786098E-01 1.297268043E-02 6.974570444E+04 1.011890696E+02 2.377946001E+00