TITLE     = "fluent22.1.0  build-id: 10213"
VARIABLES = "X"
"Y"
"Pressure"
"X Velocity"
"Y Velocity"
DATASETAUXDATA Common.DensityVar="23"
DATASETAUXDATA Common.PressureVar="3"
DATASETAUXDATA Common.TemperatureVar="12"
DATASETAUXDATA Common.TurbulentDynamicViscosityVar="17"
DATASETAUXDATA Common.UVar="5"
DATASETAUXDATA Common.VectorVarsAreVelocity="TRUE"
DATASETAUXDATA Common.ViscosityVar="25"
DATASETAUXDATA Common.VVar="7"
ZONE T="fluid"
 STRANDID=1, SOLUTIONTIME=0.895
 Nodes=10240, Elements=10080, ZONETYPE=FEQuadrilateral
 DATAPACKING=POINT
 DT=(DOUBLE DOUBLE DOUBLE DOUBLE DOUBLE )
 -4.856290020E+00 -7.872354469E-01 6.969920541E+04 1.017451543E+02 1.072808961E-02
 -4.486965126E+00 -7.104196453E-01 6.969933467E+04 1.017431106E+02 1.765739459E-02
 -4.884823481E+00 -5.813004056E-01 6.969837741E+04 1.017483581E+02 1.161265112E-02
 -4.512978697E+00 -5.225393069E-01 6.969847515E+04 1.017467955E+02 1.857809378E-02
 -4.144882468E+00 -6.392618775E-01 6.969956378E+04 1.017391547E+02 3.368540848E-02
 -4.168562062E+00 -4.681046266E-01 6.969864923E+04 1.017437713E+02 3.466448458E-02
 -3.828085743E+00 -5.733560885E-01 6.969974325E+04 1.017353729E+02 5.282144095E-02
 -3.849603919E+00 -4.176858763E-01 6.969878526E+04 1.017408788E+02 5.384612587E-02
 -3.534756377E+00 -5.123247112E-01 6.969993784E+04 1.017315249E+02 7.358731263E-02
 -3.554273280E+00 -3.709943935E-01 6.969893487E+04 1.017379240E+02 7.467567673E-02
 -3.260687427E+00 -4.701409072E-01 6.970022479E+04 1.017271079E+02 9.567812634E-02
 -3.278643982E+00 -3.401675505E-01 6.969916583E+04 1.017344550E+02 9.688092972E-02
 -3.006531121E+00 -4.338237924E-01 6.970058855E+04 1.017220711E+02 1.191188995E-01
 -3.023092542E+00 -3.139641050E-01 6.969946549E+04 1.017304183E+02 1.204835029E-01
 -2.771330191E+00 -4.002081056E-01 6.970099076E+04 1.017167012E+02 1.440535711E-01
 -2.786600544E+00 -2.897077834E-01 6.969979874E+04 1.017260799E+02 1.456027036E-01
 -2.553712647E+00 -3.690984514E-01 6.970143866E+04 1.017109040E+02 1.706110216E-01
 -2.567788465E+00 -2.672577856E-01 6.970017191E+04 1.017213553E+02 1.723658500E-01
 -2.352403667E+00 -3.403132670E-01 6.970194221E+04 1.017045741E+02 1.989388536E-01
 -2.365374482E+00 -2.464832780E-01 6.970059443E+04 1.017161455E+02 2.009248057E-01
 -2.166218830E+00 -3.136838572E-01 6.970250561E+04 1.016976504E+02 2.292038749E-01
 -2.178167671E+00 -2.272626979E-01 6.970107007E+04 1.017103961E+02 2.314494749E-01
 -1.994057807E+00 -2.890534981E-01 6.970313571E+04 1.016900479E+02 2.615872515E-01
 -2.005061663E+00 -2.094831076E-01 6.970160490E+04 1.017040308E+02 2.641242295E-01
 -1.834898499E+00 -2.662766014E-01 6.970384111E+04 1.016816669E+02 2.962856238E-01
 -1.845028746E+00 -1.930395927E-01 6.970220698E+04 1.016969575E+02 2.991494350E-01
 -1.687791565E+00 -2.452179379E-01 6.970463089E+04 1.016724007E+02 3.335115857E-01
 -1.697114367E+00 -1.778347028E-01 6.970288481E+04 1.016890771E+02 3.367421769E-01
 -1.551855335E+00 -2.257519139E-01 6.970551523E+04 1.016621302E+02 3.734945035E-01
 -1.560432016E+00 -1.637779303E-01 6.970364797E+04 1.016802785E+02 3.771369216E-01
 -1.426271074E+00 -2.077618981E-01 6.970650577E+04 1.016507202E+02 4.164809372E-01
 -1.434158463E+00 -1.507852257E-01 6.970450747E+04 1.016704344E+02 4.205862235E-01
 -1.310278571E+00 -1.911395951E-01 6.970761569E+04 1.016380182E+02 4.627352558E-01
 -1.317529323E+00 -1.387785470E-01 6.970547591E+04 1.016594002E+02 4.673614542E-01
 -1.203172029E+00 -1.757844625E-01 6.970885999E+04 1.016238515E+02 5.125403999E-01
 -1.209834925E+00 -1.276854398E-01 6.970656764E+04 1.016470108E+02 5.177536372E-01
 -1.104296250E+00 -1.616031684E-01 6.971025578E+04 1.016080235E+02 5.661986516E-01
 -1.110416475E+00 -1.174386470E-01 6.970779916E+04 1.016330776E+02 5.720743183E-01
 -1.013043073E+00 -1.485090866E-01 6.971182257E+04 1.015903101E+02 6.240323324E-01
 -1.018662472E+00 -1.079757450E-01 6.970918936E+04 1.016173839E+02 6.306564478E-01
 -9.288480633E-01 -1.364218266E-01 6.971358273E+04 1.015704555E+02 6.863845391E-01
 -9.340053843E-01 -9.923880635E-02 6.971075998E+04 1.015996813E+02 6.938552898E-01
 -8.511874338E-01 -1.252667962E-01 6.971556181E+04 1.015481667E+02 7.536197756E-01
 -8.559185489E-01 -9.117408421E-02 6.971253595E+04 1.015796844E+02 7.620493603E-01
 -7.795751748E-01 -1.149747949E-01 6.971778914E+04 1.015231088E+02 8.261244867E-01
 -7.839132886E-01 -8.373171999E-02 6.971454598E+04 1.015570649E+02 8.356412581E-01
 -7.135603872E-01 -1.054816349E-01 6.972029830E+04 1.014948969E+02 9.043083515E-01
 -7.175362294E-01 -7.686547041E-02 6.971682308E+04 1.015314448E+02 9.150584382E-01
 -6.527247990E-01 -9.672778827E-02 6.972312785E+04 1.014630899E+02 9.886041550E-01
 -6.563668033E-01 -7.053245363E-02 6.971940521E+04 1.015023896E+02 1.000754099E+00
 -5.966804554E-01 -8.865805878E-02 6.972632202E+04 1.014271816E+02 1.079467516E+00
 -6.000149262E-01 -6.469291272E-02 6.972233605E+04 1.014693983E+02 1.093208156E+00
 -5.450675698E-01 -8.122127600E-02 6.972993167E+04 1.013865910E+02 1.177380053E+00
 -5.481188366E-01 -5.930999533E-02 6.972566588E+04 1.014318948E+02 1.192927934E+00
 -4.975525242E-01 -7.437001036E-02 6.973401493E+04 1.013406443E+02 1.282847353E+00
 -5.003430851E-01 -5.434954827E-02 6.972945251E+04 1.013892159E+02 1.300448405E+00
 -4.538260092E-01 -6.806030777E-02 6.973863857E+04 1.012885731E+02 1.396396046E+00
 -4.563766646E-01 -4.977992601E-02 6.973376230E+04 1.013405943E+02 1.416334577E+00
 -4.136012943E-01 -6.225144205E-02 6.974387962E+04 1.012294988E+02 1.518577974E+00
 -4.159312704E-01 -4.557181202E-02 6.973867161E+04 1.012851506E+02 1.541177095E+00
 -3.766126186E-01 -5.690568423E-02 6.974982657E+04 1.011624041E+02 1.649979291E+00
 -3.787396826E-01 -4.169805202E-02 6.974426822E+04 1.012218706E+02 1.675596018E+00
 -3.426136945E-01 -5.198808730E-02 6.975658063E+04 1.010861189E+02 1.791215263E+00
 -3.445542614E-01 -3.813349828E-02 6.975065319E+04 1.011495916E+02 1.820249844E+00
 -3.113763158E-01 -4.746628537E-02 6.976425781E+04 1.009993000E+02 1.942916962E+00
 -3.131455473E-01 -3.485486419E-02 6.975794264E+04 1.010669742E+02 1.975839209E+00
 -2.826890636E-01 -4.331030635E-02 6.977299133E+04 1.009004019E+02 2.105742320E+00
 -2.843009604E-01 -3.184058846E-02 6.976626937E+04 1.009724697E+02 2.143088060E+00
 -2.563561031E-01 -3.949239705E-02 6.978293422E+04 1.007876451E+02 2.280387336E+00
 -2.578235903E-01 -2.907070817E-02 6.977578559E+04 1.008643045E+02 2.322748175E+00
 -2.321960649E-01 -3.598686009E-02 6.979426193E+04 1.006589829E+02 2.467581372E+00
 -2.335310709E-01 -2.652674031E-02 6.978666623E+04 1.007404331E+02 2.515625235E+00
 -2.100410046E-01 -3.276990185E-02 6.980717547E+04 1.005120603E+02 2.668087582E+00
 -2.112545351E-01 -2.419157114E-02 6.979911195E+04 1.005985008E+02 2.722571307E+00
 -1.897354361E-01 -2.981949070E-02 6.982190532E+04 1.003441650E+02 2.882709887E+00
 -1.908376425E-01 -2.204935311E-02 6.981335253E+04 1.004357979E+02 2.944485456E+00
 -1.711354329E-01 -2.711522519E-02 6.983871578E+04 1.001521703E+02 3.112299037E+00
 -1.721356753E-01 -2.008540885E-02 6.982965135E+04 1.002492011E+02 3.182324758E+00
 -1.541077930E-01 -2.463821144E-02 6.985791001E+04 9.993246760E+01 3.357757759E+00
 -1.550146992E-01 -1.828614200E-02 6.984831045E+04 1.000351066E+02 3.437112281E+00
 -1.385292625E-01 -2.237094952E-02 6.987983595E+04 9.968088585E+01 3.620052198E+00
 -1.393507828E-01 -1.663895452E-02 6.986967641E+04 9.978934857E+01 3.709950072E+00
 -1.242858142E-01 -2.029722814E-02 6.990489321E+04 9.939259400E+01 3.900213279E+00
 -1.250292721E-01 -1.513217025E-02 6.989414712E+04 9.950710464E+01 4.002022137E+00
 -1.112719782E-01 -1.840202746E-02 6.993354115E+04 9.906198786E+01 4.199355356E+00
 -1.119441170E-01 -1.375496443E-02 6.992217977E+04 9.918278086E+01 4.314617586E+00
 -9.939021869E-02 -1.667142947E-02 6.996630943E+04 9.868252968E+01 4.518690411E+00
 -9.999724577E-02 -1.249729892E-02 6.995430136E+04 9.880984919E+01 4.649150221E+00
 -8.855035617E-02 -1.509253562E-02 7.000381173E+04 9.824656182E+01 4.859533615E+00
 -8.909798318E-02 -1.134986285E-02 6.999112236E+04 9.838066580E+01 5.007166688E+00
 -7.866903045E-02 -1.365339118E-02 7.004676015E+04 9.774504789E+01 5.223309314E+00
 -7.916251100E-02 -1.030401835E-02 7.003335012E+04 9.788622454E+01 5.390365795E+00
 -6.966920204E-02 -1.234291582E-02 7.009598550E+04 9.716732575E+01 5.611525870E+00
 -7.011336654E-02 -9.351750987E-03 7.008180971E+04 9.731589643E+01 5.800618754E+00
 -6.147968916E-02 -1.115084035E-02 7.015245546E+04 9.650060456E+01 6.025779049E+00
 -6.187897719E-02 -8.485624800E-03 7.013746556E+04 9.665688097E+01 6.239968443E+00
 -5.403473804E-02 -1.006764874E-02 7.021731732E+04 9.572971550E+01 6.467857430E+00
 -5.439322831E-02 -7.698741233E-03 7.020146121E+04 9.589399813E+01 6.710656817E+00
 -4.727362389E-02 -9.084524390E-03 7.029189186E+04 9.483566812E+01 6.939621243E+00
 -4.759506201E-02 -6.984701489E-03 7.027511083E+04 9.500826030E+01 7.215082665E+00
 -4.114028065E-02 -8.193301630E-03 7.037769044E+04 9.379873305E+01 7.444777357E+00
 -4.142810483E-02 -6.337572416E-03 7.035990916E+04 9.398009323E+01 7.757487871E+00
 -3.559117316E-02 -7.337946768E-03 7.047591665E+04 9.259573050E+01 8.003446548E+00
 -3.584719183E-02 -5.707466554E-03 7.045701302E+04 9.278668723E+01 8.357942402E+00
 -3.060570280E-02 -6.351262460E-03 7.058791526E+04 9.120052314E+01 8.642459596E+00
 -3.082666740E-02 -4.940910233E-03 7.056773609E+04 9.140216436E+01 9.042877097E+00
 -2.610025013E-02 -5.460220663E-03 7.071684458E+04 8.956780044E+01 9.365844532E+00
 -2.628953278E-02 -4.248794120E-03 7.069520483E+04 8.978165375E+01 9.817064208E+00
 -2.203453691E-02 -4.656762321E-03 7.086667953E+04 8.762684414E+01 1.017735830E+01
 -2.219522710E-02 -3.624839955E-03 7.084335289E+04 8.785431577E+01 1.068663495E+01
 -1.837142814E-02 -3.933448054E-03 7.104189025E+04 8.530424596E+01 1.109794134E+01
 -1.850635473E-02 -3.063250011E-03 7.101663296E+04 8.554779730E+01 1.167352521E+01
 -1.507669761E-02 -3.283414979E-03 7.124742571E+04 8.247433861E+01 1.216087521E+01
 -1.518844935E-02 -2.558674298E-03 7.121984993E+04 8.273503325E+01 1.281506284E+01
 -1.211881057E-02 -2.700336221E-03 7.149185981E+04 7.900456467E+01 1.340112127E+01
 -1.220975497E-02 -2.106179670E-03 7.146168353E+04 7.928877361E+01 1.414352754E+01
 -9.468722036E-03 -2.178382904E-03 7.178158798E+04 7.455473883E+01 1.491592487E+01
 -9.541022799E-03 -1.701220736E-03 7.174788612E+04 7.485729766E+01 1.577076585E+01
 -7.099689690E-03 -1.712188409E-03 7.213607942E+04 6.892696147E+01 1.671879659E+01
 -7.155322880E-03 -1.339612400E-03 7.209923010E+04 6.926215803E+01 1.770228761E+01
 -4.987100387E-03 -1.296814716E-03 7.254312118E+04 6.089291964E+01 1.926041474E+01
 -5.027869325E-03 -1.017503910E-03 7.249903046E+04 6.123856215E+01 2.043124964E+01
 -3.108309208E-03 -9.277202804E-04 7.303443314E+04 5.060539514E+01 2.260570884E+01
 -3.135858253E-03 -7.313538757E-04 7.298533866E+04 5.101849877E+01 2.401663800E+01
 -1.442490122E-03 -6.007286437E-04 7.339950154E+04 3.554475093E+01 3.002055944E+01
 -1.458317407E-03 -4.779054615E-04 7.333913639E+04 3.607256517E+01 3.163003316E+01
 2.950318352E-05 -3.119902977E-04 7.348201511E+04 2.582115951E+01 3.567587239E+01
 2.403397564E-05 -2.541545121E-04 7.340907441E+04 2.637696381E+01 3.737021891E+01
 -4.904860300E+00 -3.743658139E-01 6.969753794E+04 1.017516382E+02 1.235397310E-02
 -4.531146997E+00 -3.337362947E-01 6.969760623E+04 1.017505436E+02 1.934862363E-02
 -4.184999707E+00 -2.960958746E-01 6.969772836E+04 1.017484375E+02 3.547892034E-02
 -3.864438867E+00 -2.612300639E-01 6.969782356E+04 1.017464315E+02 5.468735302E-02
 -3.567624286E+00 -2.289394678E-01 6.969793098E+04 1.017443625E+02 7.555157406E-02
 -3.290913349E+00 -2.095267375E-01 6.969810678E+04 1.017418413E+02 9.783880204E-02
 -3.034410054E+00 -1.934891493E-01 6.969834163E+04 1.017388118E+02 1.215753109E-01
 -2.797037206E+00 -1.786404844E-01 6.969860541E+04 1.017355053E+02 1.468521060E-01
 -2.577410139E+00 -1.648948210E-01 6.969890341E+04 1.017318503E+02 1.737929117E-01
 -2.374242258E+00 -1.521723166E-01 6.969924421E+04 1.017277586E+02 2.025543153E-01
 -2.186338198E+00 -1.403987847E-01 6.969963126E+04 1.017231828E+02 2.333085323E-01
 -2.012587469E+00 -1.295053000E-01 6.970006998E+04 1.017180556E+02 2.662421022E-01
 -1.851958531E+00 -1.194278321E-01 6.970056776E+04 1.017122936E+02 3.015591490E-01
 -1.703493273E+00 -1.101069042E-01 6.970113251E+04 1.017058058E+02 3.394814054E-01
 -1.566301883E+00 -1.014872757E-01 6.970177315E+04 1.016984894E+02 3.802486097E-01
 -1.439558064E+00 -9.351764718E-02 6.970250007E+04 1.016902251E+02 4.241194594E-01
 -1.322494584E+00 -8.615038570E-02 6.970332519E+04 1.016808766E+02 4.713724629E-01
 -1.214399129E+00 -7.934126952E-02 6.970426222E+04 1.016702867E+02 5.223068557E-01
 -1.114610449E+00 -7.304925036E-02 6.970532697E+04 1.016582747E+02 5.772436354E-01
 -1.022514767E+00 -6.723623233E-02 6.970653767E+04 1.016446322E+02 6.365266254E-01
 -9.375424370E-01 -6.186686616E-02 6.970791533E+04 1.016291186E+02 7.005235624E-01
 -8.591648343E-01 -5.690835778E-02 6.970948423E+04 1.016114564E+02 7.696271935E-01
 -7.868914617E-01 -5.233028996E-02 6.971127237E+04 1.015913251E+02 8.442563537E-01
 -7.202672566E-01 -4.810445639E-02 6.971331205E+04 1.015683547E+02 9.248571548E-01
 -6.588700848E-01 -4.420470694E-02 6.971564057E+04 1.015421178E+02 1.011904183E+00
 -6.023084094E-01 -4.060680358E-02 6.971830094E+04 1.015121209E+02 1.105901160E+00
 -5.502191214E-01 -3.728828590E-02 6.972134277E+04 1.014777945E+02 1.207382727E+00
 -5.022655222E-01 -3.422834566E-02 6.972482321E+04 1.014384812E+02 1.316915440E+00
 -4.581354462E-01 -3.140770966E-02 6.972880808E+04 1.013934243E+02 1.435097320E+00
 -4.175395148E-01 -2.880853021E-02 6.973337328E+04 1.013417484E+02 1.562564460E+00
 -3.802095128E-01 -2.641428276E-02 6.973860591E+04 1.012824413E+02 1.699984058E+00
 -3.458968775E-01 -2.420967002E-02 6.974460593E+04 1.012143393E+02 1.848054188E+00
 -3.143712946E-01 -2.218053225E-02 6.975148883E+04 1.011361162E+02 2.007520808E+00
 -2.854193918E-01 -2.031376319E-02 6.975938754E+04 1.010462327E+02 2.179190369E+00
 -2.588435246E-01 -1.859723131E-02 6.976845370E+04 1.009429096E+02 2.363897612E+00
 -2.344606472E-01 -1.701970615E-02 6.977886086E+04 1.008241126E+02 2.562510416E+00
 -2.121012625E-01 -1.557078936E-02 6.979080870E+04 1.006874928E+02 2.775970934E+00
 -1.916084468E-01 -1.424085037E-02 6.980452614E+04 1.005303449E+02 3.005284561E+00
 -1.728369426E-01 -1.302096640E-02 6.982027521E+04 1.003495537E+02 3.251522251E+00
 -1.556523157E-01 -1.190286680E-02 6.983835627E+04 1.001415258E+02 3.515836012E+00
 -1.399301721E-01 -1.087888149E-02 6.985911383E+04 9.990210689E+01 3.799474812E+00
 -1.255554297E-01 -9.941893447E-03 6.988294330E+04 9.962649006E+01 4.103792381E+00
 -1.124216429E-01 -9.085295087E-03 6.991029879E+04 9.930909989E+01 4.430273263E+00
 -1.004303736E-01 -8.302948427E-03 6.994170345E+04 9.894343039E+01 4.780556877E+00
 -8.949060831E-02 -7.589148878E-03 6.997776309E+04 9.852186597E+01 5.156455419E+00
 -7.951821623E-02 -6.938592453E-03 7.001917952E+04 9.803543092E+01 5.559983771E+00
 -7.043544578E-02 -6.346346182E-03 7.006677127E+04 9.747353564E+01 5.993386286E+00
 -6.217045762E-02 -5.807821552E-03 7.012149418E+04 9.682342563E+01 6.459182002E+00
 -5.465689088E-02 -5.318750568E-03 7.018448171E+04 9.606997197E+01 6.960205524E+00
 -4.783346039E-02 -4.875164100E-03 7.025703645E+04 9.519422638E+01 7.499639912E+00
 -4.164358303E-02 -4.473372447E-03 7.034064369E+04 9.417661268E+01 8.082297598E+00
 -3.604055120E-02 -4.069653377E-03 7.043645064E+04 9.299453443E+01 8.726656899E+00
 -3.099374128E-02 -3.524244833E-03 7.054573521E+04 9.162237834E+01 9.458762423E+00
 -2.643284938E-02 -3.031978169E-03 7.067157249E+04 9.001576515E+01 1.028601279E+01
 -2.231710269E-02 -2.588363500E-03 7.081783713E+04 8.810361555E+01 1.121754735E+01
 -1.860891026E-02 -2.189251835E-03 7.098897047E+04 8.581486219E+01 1.227625136E+01
 -1.527362576E-02 -1.830812640E-03 7.118956087E+04 8.302093266E+01 1.350446059E+01
 -1.227932738E-02 -1.509512591E-03 7.142843665E+04 7.960070261E+01 1.493297488E+01
 -9.596613578E-03 -1.222095445E-03 7.171043717E+04 7.519258176E+01 1.668803705E+01
 -7.198413753E-03 -9.655628982E-04 7.205791517E+04 6.963615587E+01 1.876524991E+01
 -5.059812540E-03 -7.371563523E-04 7.244937308E+04 6.162938427E+01 2.168752140E+01
 -3.157886906E-03 -5.343391114E-04 7.292969143E+04 5.149173663E+01 2.550103945E+01
 -1.471554982E-03 -3.547781722E-04 7.327192909E+04 3.666917841E+01 3.331762029E+01
 1.856476775E-05 -1.963187265E-04 7.332908241E+04 2.699878612E+01 3.915674215E+01
 -4.916318661E+00 -1.667794339E-01 6.969669709E+04 1.017549587E+02 1.283403739E-02
 -4.541394479E+00 -1.443317200E-01 6.969673590E+04 1.017543355E+02 1.984985998E-02
 -4.194125662E+00 -1.235320482E-01 6.969680512E+04 1.017531559E+02 3.602516093E-02
 -3.872526225E+00 -1.042622061E-01 6.969685830E+04 1.017520370E+02 5.528753257E-02
 -3.574750009E+00 -8.641231314E-02 6.969692324E+04 1.017508426E+02 7.622035283E-02
 -3.297440801E+00 -7.845125393E-02 6.969704362E+04 1.017492598E+02 9.860743795E-02
 -3.040433196E+00 -7.261356601E-02 6.969721309E+04 1.017472335E+02 1.224760697E-01
 -2.802593662E+00 -6.720405827E-02 6.969740693E+04 1.017449565E+02 1.479005597E-01
 -2.582534811E+00 -6.219187098E-02 6.969762931E+04 1.017423712E+02 1.750041291E-01
 -2.378967513E+00 -5.754832459E-02 6.969788770E+04 1.017394024E+02 2.039481793E-01
 -2.190694053E+00 -5.324676746E-02 6.969818532E+04 1.017360081E+02 2.349085073E-01
 -2.016601758E+00 -4.926243455E-02 6.969852699E+04 1.017321297E+02 2.680750040E-01
 -1.855657056E+00 -4.557231623E-02 6.969891937E+04 1.017276923E+02 3.036559738E-01
 -1.706899954E+00 -4.215503652E-02 6.969936975E+04 1.017226132E+02 3.418779597E-01
 -1.569438889E+00 -3.899073994E-02 6.969988642E+04 1.017167973E+02 3.829860251E-01
 -1.442445939E+00 -3.606098651E-02 6.970047906E+04 1.017101339E+02 4.272449765E-01
 -1.325152362E+00 -3.334865414E-02 6.970115893E+04 1.017024946E+02 4.749403997E-01
 -1.216844444E+00 -3.083784796E-02 6.970193903E+04 1.016937308E+02 5.263796802E-01
 -1.116859636E+00 -2.851381610E-02 6.970283446E+04 1.016836703E+02 5.818931796E-01
 -1.024582953E+00 -2.636287129E-02 6.970386270E+04 1.016721131E+02 6.418354725E-01
 -9.394436294E-01 -2.437231801E-02 6.970504405E+04 1.016588272E+02 7.065866180E-01
 -8.609120011E-01 -2.253038461E-02 6.970640201E+04 1.016435438E+02 7.765534772E-01
 -7.884966068E-01 -2.082616014E-02 6.970796383E+04 1.016259509E+02 8.521710621E-01
 -7.217414892E-01 -1.924953539E-02 6.970976105E+04 1.016056871E+02 9.339038859E-01
 -6.602236845E-01 -1.779114784E-02 6.971183021E+04 1.015823334E+02 1.022247350E+00
 -6.035508861E-01 -1.644233020E-02 6.971421355E+04 1.015554048E+02 1.117729147E+00
 -5.513592713E-01 -1.519506221E-02 6.971695993E+04 1.015243397E+02 1.220910944E+00
 -5.033114796E-01 -1.404192537E-02 6.972012576E+04 1.014884892E+02 1.332389311E+00
 -4.590947317E-01 -1.297606045E-02 6.972377613E+04 1.014471023E+02 1.452797996E+00
 -4.184190802E-01 -1.199112737E-02 6.972798619E+04 1.013993121E+02 1.582808585E+00
 -3.810157823E-01 -1.108126735E-02 6.973284250E+04 1.013441201E+02 1.723135299E+00
 -3.466357865E-01 -1.024106715E-02 6.973844437E+04 1.012803642E+02 1.874534583E+00
 -3.150483254E-01 -9.465525151E-03 6.974490582E+04 1.012067101E+02 2.037796505E+00
 -2.860396068E-01 -8.750019253E-03 6.975235882E+04 1.011216423E+02 2.213767460E+00
 -2.594115972E-01 -8.090276456E-03 6.976095510E+04 1.010233944E+02 2.403375354E+00
 -2.349808902E-01 -7.482344086E-03 6.977086744E+04 1.009099259E+02 2.607580957E+00
 -2.125776548E-01 -6.922562653E-03 6.978229361E+04 1.007789034E+02 2.827389406E+00
 -1.920446582E-01 -6.407540336E-03 6.979546110E+04 1.006276313E+02 3.063902430E+00
 -1.732363562E-01 -5.934129151E-03 6.981063060E+04 1.004530039E+02 3.318303835E+00
 -1.560180496E-01 -5.499402833E-03 6.982810044E+04 1.002514421E+02 3.591865811E+00
 -1.402650988E-01 -5.100636495E-03 6.984821262E+04 1.000188110E+02 3.885972287E+00
 -1.258621949E-01 -4.735288102E-03 6.987135953E+04 9.975032422E+01 4.202132516E+00
 -1.127026819E-01 -4.400981792E-03 6.989799157E+04 9.944043330E+01 4.542008599E+00
 -1.006879277E-01 -4.095493054E-03 6.992862738E+04 9.908266854E+01 4.907442226E+00
 -8.972673926E-02 -3.816735741E-03 6.996386704E+04 9.866945714E+01 5.300480366E+00
 -7.973481973E-02 -3.562750833E-03 7.000440549E+04 9.819187359E+01 5.723420369E+00
 -7.063426442E-02 -3.331696880E-03 7.005105296E+04 9.763938921E+01 6.178846141E+00
 -6.235309258E-02 -3.121841980E-03 7.010475538E+04 9.699931300E+01 6.669701829E+00
 -5.482481281E-02 -2.931557056E-03 7.016663487E+04 9.625659885E+01 7.199331952E+00
 -4.798801957E-02 -2.759310223E-03 7.023797974E+04 9.539236807E+01 7.771564490E+00
 -4.178601870E-02 -2.603662160E-03 7.032026278E+04 9.438710078E+01 8.391682979E+00
 -3.617064852E-02 -2.427071313E-03 7.041461467E+04 9.321853886E+01 9.077974299E+00
 -3.110640610E-02 -2.103471609E-03 7.052228821E+04 9.186102473E+01 9.856016718E+00
 -2.652975783E-02 -1.811653893E-03 7.064634409E+04 9.027045116E+01 1.073413686E+01
 -2.239979039E-02 -1.548921403E-03 7.079057357E+04 8.837573127E+01 1.172435863E+01
 -1.867878341E-02 -1.312778293E-03 7.095940595E+04 8.610738683E+01 1.285035630E+01
 -1.533197127E-02 -1.100917592E-03 7.115717509E+04 8.333512690E+01 1.415929338E+01
 -1.232732227E-02 -9.112096320E-04 7.139293916E+04 7.994359229E+01 1.568226189E+01
 -9.635333686E-03 -7.416908931E-04 7.167045757E+04 7.556331618E+01 1.755962299E+01
 -7.228841700E-03 -5.905532049E-04 7.201372017E+04 7.005109747E+01 1.978557158E+01
 -5.082845160E-03 -4.561332438E-04 7.239630638E+04 6.206653867E+01 2.290635477E+01
 -3.174342079E-03 -3.369019250E-04 7.287003952E+04 5.202033100E+01 2.694046524E+01
 -1.482177943E-03 -2.314527690E-04 7.320039641E+04 3.733457228E+01 3.497123820E+01
 1.309555987E-05 -1.384829409E-04 7.324460570E+04 2.769686200E+01 4.092675657E+01
 -4.919121367E+00 4.110405248E-02 6.969585342E+04 1.017583041E+02 1.313317674E-02
 -4.543649864E+00 4.534690609E-02 6.969586272E+04 1.017581502E+02 2.017529903E-02
 -4.195874125E+00 4.928452740E-02 6.969587871E+04 1.017578950E+02 3.640586845E-02
 -3.873805263E+00 5.293869466E-02 6.969588972E+04 1.017576617E+02 5.572544883E-02
 -3.575594419E+00 5.632966543E-02 6.969591244E+04 1.017573415E+02 7.671526814E-02
 -3.298174705E+00 5.282148156E-02 6.969597719E+04 1.017567040E+02 9.917482150E-02
 -3.041114360E+00 4.844373164E-02 6.969608053E+04 1.017556933E+02 1.231406093E-01
 -2.803226030E+00 4.439970741E-02 6.969620365E+04 1.017544582E+02 1.486798501E-01
 -2.583122041E+00 4.066512183E-02 6.969634973E+04 1.017529544E+02 1.759155012E-01
 -2.379512997E+00 3.721741321E-02 6.969652492E+04 1.017511211E+02 2.050121021E-01
 -2.191200936E+00 3.403562543E-02 6.969673218E+04 1.017489218E+02 2.361481259E-01
 -2.017072954E+00 3.110029591E-02 6.969697577E+04 1.017463061E+02 2.695161759E-01
 -1.856095268E+00 2.839335082E-02 6.969726159E+04 1.017432084E+02 3.053282061E-01
 -1.707307685E+00 2.589800725E-02 6.969759627E+04 1.017395542E+02 3.438152993E-01
 -1.569818460E+00 2.359868176E-02 6.969798742E+04 1.017352568E+02 3.852278024E-01
 -1.442799501E+00 2.148090497E-02 6.969844403E+04 1.017302143E+02 4.298366765E-01
 -1.325481907E+00 1.953124192E-02 6.969897662E+04 1.017243069E+02 4.779346674E-01
 -1.217151818E+00 1.773721766E-02 6.969959747E+04 1.017173948E+02 5.298374250E-01
 -1.117146549E+00 1.608724790E-02 6.970032090E+04 1.017093148E+02 5.858848211E-01
 -1.024850987E+00 1.457057440E-02 6.970116362E+04 1.016998759E+02 6.464423676E-01
 -9.396942511E-01 1.317720475E-02 6.970214514E+04 1.016888555E+02 7.119026819E-01
 -8.611465682E-01 1.189785642E-02 6.970328813E+04 1.016759937E+02 7.826870124E-01
 -7.887163763E-01 1.072390466E-02 6.970461903E+04 1.016609882E+02 8.592468118E-01
 -7.219476247E-01 9.647334205E-03 6.970616854E+04 1.016434866E+02 9.420653658E-01
 -6.604172629E-01 8.660694589E-03 6.970797235E+04 1.016230794E+02 1.031659504E+00
 -6.037329040E-01 7.757058706E-03 6.971007187E+04 1.015992908E+02 1.128581291E+00
 -5.515306509E-01 6.929984677E-03 6.971251508E+04 1.015715684E+02 1.233419813E+00
 -5.034730740E-01 6.173480733E-03 6.971535756E+04 1.015392717E+02 1.346803151E+00
 -4.592473299E-01 5.481973010E-03 6.971866357E+04 1.015016591E+02 1.469399854E+00
 -4.185634119E-01 4.850276117E-03 6.972250737E+04 1.014578717E+02 1.601922059E+00
 -3.811525219E-01 4.273566315E-03 6.972697459E+04 1.014069171E+02 1.745127881E+00
 -3.467655573E-01 3.747357171E-03 6.973216397E+04 1.013476534E+02 1.899823230E+00
 -3.151717030E-01 3.267477518E-03 6.973818879E+04 1.012787470E+02 2.066866733E+00
 -2.861571229E-01 2.830051564E-03 6.974517908E+04 1.011986695E+02 2.247158226E+00
 -2.595237424E-01 2.431480937E-03 6.975328531E+04 1.011056883E+02 2.441666795E+00
 -2.350881168E-01 2.068428494E-03 6.976268034E+04 1.009977779E+02 2.651463302E+00
 -2.126803799E-01 1.737803649E-03 6.977356066E+04 1.008725996E+02 2.877658917E+00
 -1.921432658E-01 1.436749012E-03 6.978615127E+04 1.007274776E+02 3.121426593E+00
 -1.733311998E-01 1.162628082E-03 6.980071091E+04 1.005593197E+02 3.384061723E+00
 -1.561094543E-01 9.130137778E-04 6.981753583E+04 1.003645622E+02 3.666966543E+00
 -1.403533634E-01 6.856775543E-04 6.983696511E+04 1.001390930E+02 3.971665227E+00
 -1.259475935E-01 4.785789203E-04 6.985938747E+04 9.987815226E+01 4.299826058E+00
 -1.127854663E-01 2.898551593E-04 6.988524899E+04 9.957622340E+01 4.653293994E+00
 -1.007683285E-01 1.178111075E-04 6.991506293E+04 9.922688072E+01 5.034123096E+00
 -8.980496793E-02 -3.909111073E-05 6.994942253E+04 9.882260482E+01 5.444608442E+00
 -7.981106993E-02 -1.822424469E-04 6.998901430E+04 9.835453406E+01 5.887342528E+00
 -7.070871345E-02 -3.128974315E-04 7.003463837E+04 9.781221834E+01 6.365262567E+00
 -6.242590276E-02 -4.321847532E-04 7.008722789E+04 9.718306390E+01 6.881732996E+00
 -5.489613271E-02 -5.411178179E-04 7.014788975E+04 9.645214597E+01 7.440611141E+00
 -4.805798521E-02 -6.406051573E-04 7.021789361E+04 9.560074430E+01 8.046383367E+00
 -4.185475462E-02 -7.314606759E-04 7.029869795E+04 9.460928100E+01 8.704953997E+00
 -3.623691516E-02 -7.823352555E-04 7.039144358E+04 9.345557849E+01 9.434246370E+00
 -3.116417286E-02 -6.808395999E-04 7.049736784E+04 9.211383099E+01 1.025911927E+01
 -2.657984104E-02 -5.897396596E-04 7.061949372E+04 9.054053543E+01 1.118889485E+01
 -2.244293805E-02 -5.081336063E-04 7.076149364E+04 8.866492425E+01 1.223846130E+01
 -1.871568050E-02 -4.351804319E-04 7.092779838E+04 8.641916154E+01 1.343245864E+01
 -1.536324478E-02 -3.700983329E-04 7.112245946E+04 8.367123316E+01 1.482221062E+01
 -1.235354577E-02 -3.121628176E-04 7.135482578E+04 8.031121766E+01 1.643878782E+01
 -9.657031528E-03 -2.607045374E-04 7.162748863E+04 7.596303411E+01 1.843399403E+01
 -7.246492935E-03 -2.151068363E-04 7.196611680E+04 7.050014727E+01 2.080474381E+01
 -5.096887119E-03 -1.748029776E-04 7.233953937E+04 6.254783532E+01 2.411431594E+01
 -3.185173693E-03 -1.392727517E-04 7.280609231E+04 5.259935451E+01 2.834578345E+01
 -1.490162796E-03 -1.080373547E-04 7.312375495E+04 3.806312737E+01 3.660736815E+01
 7.626351982E-06 -8.064715534E-05 7.315466552E+04 2.847230666E+01 4.270941525E+01
 -4.913313371E+00 2.489252871E-01 6.969500726E+04 1.017616625E+02 1.319682941E-02
 -4.537954651E+00 2.349678105E-01 6.969498680E+04 1.017619818E+02 2.025357470E-02
 -4.190283402E+00 2.220475842E-01 6.969494898E+04 1.017626591E+02 3.652416124E-02
 -3.868311328E+00 2.100899933E-01 6.969491731E+04 1.017633177E+02 5.590465795E-02
 -3.570190123E+00 1.990256997E-01 6.969489755E+04 1.017638758E+02 7.697012759E-02
 -3.293145185E+00 1.840509489E-01 6.969490635E+04 1.017641891E+02 9.951729884E-02
 -3.036481322E+00 1.694609689E-01 6.969494299E+04 1.017642017E+02 1.235820619E-01
 -2.798959915E+00 1.559663851E-01 6.969499477E+04 1.017640168E+02 1.492289109E-01
 -2.579195425E+00 1.434877804E-01 6.969506389E+04 1.017636031E+02 1.765835196E-01
 -2.375900445E+00 1.319513673E-01 6.969515511E+04 1.017629148E+02 2.058142055E-01
 -2.187878861E+00 1.212885966E-01 6.969527111E+04 1.017619214E+02 2.371029612E-01
 -2.014019482E+00 1.114357918E-01 6.969541559E+04 1.017605804E+02 2.706462685E-01
 -1.853290120E+00 1.023338082E-01 6.969559366E+04 1.017588356E+02 3.066604353E-01
 -1.704732062E+00 9.392771625E-02 6.969581126E+04 1.017566214E+02 3.453814053E-01
 -1.567454938E+00 8.616650459E-02 6.969607530E+04 1.017538597E+02 3.870650076E-01
 -1.440631932E+00 7.900280505E-02 6.969639404E+04 1.017504575E+02 4.319884528E-01
 -1.323495329E+00 7.239263537E-02 6.969677723E+04 1.017463042E+02 4.804516640E-01
 -1.215332371E+00 6.629515997E-02 6.969723639E+04 1.017412693E+02 5.327785471E-01
 -1.115481392E+00 6.067246695E-02 6.969778502E+04 1.017351988E+02 5.893184664E-01
 -1.023328232E+00 5.548936054E-02 6.969843903E+04 1.017279115E+02 6.504478386E-01
 -9.383028869E-01 5.071316783E-02 6.969921704E+04 1.017191944E+02 7.165717942E-01
 -8.598764030E-01 4.631355900E-02 6.970014088E+04 1.017087978E+02 7.881259157E-01
 -7.875579758E-01 4.226238000E-02 6.970123609E+04 1.016964291E+02 8.655780576E-01
 -7.208922585E-01 3.853349702E-02 6.970253245E+04 1.016817463E+02 9.494302317E-01
 -6.594568531E-01 3.510265201E-02 6.970406474E+04 1.016643499E+02 1.040220569E+00
 -6.028599783E-01 3.194732847E-02 6.970587342E+04 1.016437742E+02 1.138525337E+00
 -5.507382984E-01 2.904662690E-02 6.970800555E+04 1.016194770E+02 1.244961098E+00
 -5.027549045E-01 2.638114936E-02 6.971051573E+04 1.015908277E+02 1.360186851E+00
 -4.585974360E-01 2.393289258E-02 6.971346728E+04 1.015570945E+02 1.484906425E+00
 -4.179763333E-01 2.168514894E-02 6.971693347E+04 1.015174283E+02 1.619871155E+00
 -3.806232132E-01 1.962241509E-02 6.972099895E+04 1.014708465E+02 1.765882743E+00
 -3.462893573E-01 1.773030743E-02 6.972576138E+04 1.014162133E+02 1.923796972E+00
 -3.147443064E-01 1.599548418E-02 6.973133331E+04 1.013522196E+02 2.094526391E+00
 -2.857745539E-01 1.440557352E-02 6.973784383E+04 1.012773352E+02 2.279046866E+00
 -2.591823305E-01 1.294910730E-02 6.974544107E+04 1.011898118E+02 2.478385197E+00