TITLE     = "fluent22.1.0  build-id: 10213"
VARIABLES = "X"
"Y"
"Pressure"
"X Velocity"
"Y Velocity"
DATASETAUXDATA Common.DensityVar="23"
DATASETAUXDATA Common.PressureVar="3"
DATASETAUXDATA Common.TemperatureVar="12"
DATASETAUXDATA Common.TurbulentDynamicViscosityVar="17"
DATASETAUXDATA Common.UVar="5"
DATASETAUXDATA Common.VectorVarsAreVelocity="TRUE"
DATASETAUXDATA Common.ViscosityVar="25"
DATASETAUXDATA Common.VVar="7"
ZONE T="fluid"
 STRANDID=1, SOLUTIONTIME=0.925
 Nodes=10240, Elements=10080, ZONETYPE=FEQuadrilateral
 DATAPACKING=POINT
 DT=(DOUBLE DOUBLE DOUBLE DOUBLE DOUBLE )
 -4.856290020E+00 -7.872354469E-01 6.969936472E+04 1.017445418E+02 1.117617240E-02
 -4.486966623E+00 -7.104284248E-01 6.969949799E+04 1.017424246E+02 1.838661702E-02
 -4.884823481E+00 -5.813004056E-01 6.969850350E+04 1.017478751E+02 1.209190121E-02
 -4.512980176E+00 -5.225480176E-01 6.969860414E+04 1.017462579E+02 1.933907056E-02
 -4.144885285E+00 -6.392784086E-01 6.969973404E+04 1.017383266E+02 3.506485106E-02
 -4.168564848E+00 -4.681210338E-01 6.969878325E+04 1.017431284E+02 3.607617071E-02
 -3.828089720E+00 -5.733794291E-01 6.969991858E+04 1.017344105E+02 5.497751218E-02
 -3.849607851E+00 -4.177090482E-01 6.969892288E+04 1.017401369E+02 5.603419409E-02
 -3.534761364E+00 -5.123539947E-01 6.970011859E+04 1.017304297E+02 7.658718191E-02
 -3.554278213E+00 -3.710234730E-01 6.969907634E+04 1.017370848E+02 7.770775241E-02
 -3.260693296E+00 -4.701753685E-01 6.970041407E+04 1.017258634E+02 9.957681702E-02
 -3.278649790E+00 -3.402017834E-01 6.969931384E+04 1.017335040E+02 1.008136916E-01
 -3.006537751E+00 -4.338627133E-01 6.970078885E+04 1.017206588E+02 1.239717961E-01
 -3.023099103E+00 -3.140027764E-01 6.969962221E+04 1.017293393E+02 1.253738247E-01
 -2.771337469E+00 -4.002508211E-01 6.970120297E+04 1.017151154E+02 1.499209264E-01
 -2.786607747E+00 -2.897502304E-01 6.969996485E+04 1.017248682E+02 1.515113195E-01
 -2.553720470E+00 -3.691443508E-01 6.970166381E+04 1.017091363E+02 1.775576937E-01
 -2.567796206E+00 -2.673033998E-01 6.970034820E+04 1.017200042E+02 1.793579724E-01
 -2.352411939E+00 -3.403617901E-01 6.970218159E+04 1.017026134E+02 2.070352099E-01
 -2.365382668E+00 -2.465315008E-01 6.970078195E+04 1.017146456E+02 2.090712383E-01
 -2.166227464E+00 -3.137344901E-01 6.970276054E+04 1.016954847E+02 2.385266484E-01
 -2.178176215E+00 -2.273130170E-01 6.970126983E+04 1.017087375E+02 2.408274063E-01
 -1.994066724E+00 -2.891057696E-01 6.970340757E+04 1.016876638E+02 2.722201962E-01
 -2.005070485E+00 -2.095350533E-01 6.970181800E+04 1.017022027E+02 2.748178770E-01
 -1.834907625E+00 -2.663300797E-01 6.970413140E+04 1.016790490E+02 3.083202099E-01
 -1.845037774E+00 -1.930927348E-01 6.970243458E+04 1.016949472E+02 3.112507400E-01
 -1.687800833E+00 -2.452722277E-01 6.970494125E+04 1.016695323E+02 3.470477076E-01
 -1.697123534E+00 -1.778886471E-01 6.970312819E+04 1.016868709E+02 3.503515211E-01
 -1.551864685E+00 -2.258066533E-01 6.970584738E+04 1.016589925E+02 3.886412225E-01
 -1.560441261E+00 -1.638323162E-01 6.970390847E+04 1.016778609E+02 3.923638663E-01
 -1.426280449E+00 -2.078167561E-01 6.970686156E+04 1.016472927E+02 4.333572443E-01
 -1.434167731E+00 -1.508397236E-01 6.970478655E+04 1.016677888E+02 4.375502787E-01
 -1.310287919E+00 -1.911942696E-01 6.970799710E+04 1.016342785E+02 4.814708795E-01
 -1.317538562E+00 -1.388328560E-01 6.970577510E+04 1.016565081E+02 4.861928822E-01
 -1.203181304E+00 -1.758386780E-01 6.970926913E+04 1.016197752E+02 5.332766478E-01
 -1.209844089E+00 -1.277392858E-01 6.970688861E+04 1.016438524E+02 5.385943041E-01
 -1.104305410E+00 -1.616566744E-01 6.971069487E+04 1.016035840E+02 5.890892945E-01
 -1.110425522E+00 -1.174917805E-01 6.970814364E+04 1.016296309E+02 5.950785962E-01
 -1.013052078E+00 -1.485616558E-01 6.971229398E+04 1.015854788E+02 6.492446015E-01
 -1.018671363E+00 -1.080279403E-01 6.970955921E+04 1.016136254E+02 6.559921775E-01
 -9.288568791E-01 -1.364732537E-01 6.971408893E+04 1.015652013E+02 7.141001012E-01
 -9.340140855E-01 -9.928985937E-02 6.971115712E+04 1.015955855E+02 7.217047683E-01
 -8.511960286E-01 -1.253168967E-01 6.971610541E+04 1.015424564E+02 7.840358703E-01
 -8.559270289E-01 -9.122381197E-02 6.971296243E+04 1.015752238E+02 7.926104291E-01
 -7.795835206E-01 -1.150234042E-01 6.971837284E+04 1.015169065E+02 8.594550423E-01
 -7.839215196E-01 -8.377995932E-02 6.971500390E+04 1.015522098E+02 8.691284221E-01
 -7.135684587E-01 -1.055286074E-01 6.972092492E+04 1.014881647E+02 9.407849868E-01
 -7.175441867E-01 -7.691207720E-02 6.971731461E+04 1.015261637E+02 9.517041600E-01
 -6.527325742E-01 -9.677299671E-02 6.972380027E+04 1.014557869E+02 1.028477657E+00
 -6.563744653E-01 -7.057730214E-02 6.971993258E+04 1.014966484E+02 1.040809804E+00
 -5.966879154E-01 -8.870139371E-02 6.972704323E+04 1.014192642E+02 1.123009577E+00
 -6.000222744E-01 -6.473589506E-02 6.972290154E+04 1.014631611E+02 1.136945851E+00
 -5.450746983E-01 -8.126264535E-02 6.973070465E+04 1.013780126E+02 1.224883239E+00
 -5.481258553E-01 -5.935102097E-02 6.972627175E+04 1.014251226E+02 1.240641805E+00
 -4.975593079E-01 -7.440933909E-02 6.973484271E+04 1.013313577E+02 1.334628505E+00
 -5.003497614E-01 -5.438854367E-02 6.973010098E+04 1.013818679E+02 1.352455144E+00
 -4.538324375E-01 -6.809753752E-02 6.973952433E+04 1.012785290E+02 1.452798198E+00
 -4.563829884E-01 -4.981683430E-02 6.973445572E+04 1.013326302E+02 1.472976441E+00
 -4.136073594E-01 -6.228653089E-02 6.974482618E+04 1.012186378E+02 1.579970853E+00
 -4.159372345E-01 -4.560659264E-02 6.973941220E+04 1.012765221E+02 1.602826022E+00
 -3.766183155E-01 -5.693860633E-02 6.975083645E+04 1.011506689E+02 1.716756340E+00
 -3.787452822E-01 -4.173068043E-02 6.974505772E+04 1.012125255E+02 1.742650341E+00
 -3.426190207E-01 -5.201883260E-02 6.975765670E+04 1.010734521E+02 1.863802381E+00
 -3.445594945E-01 -3.816396557E-02 6.975149325E+04 1.011394826E+02 1.893133018E+00
 -3.113812715E-01 -4.749485922E-02 6.976540287E+04 1.009856350E+02 2.021777434E+00
 -3.131504145E-01 -3.488317670E-02 6.975883505E+04 1.010560475E+02 2.055010861E+00
 -2.826936515E-01 -4.333672896E-02 6.977420756E+04 1.008856729E+02 2.191370385E+00
 -2.843054647E-01 -3.186676721E-02 6.976721555E+04 1.009606670E+02 2.229046248E+00
 -2.563603284E-01 -3.951670293E-02 6.978422340E+04 1.007717833E+02 2.373314378E+00
 -2.578277371E-01 -2.909478827E-02 6.977678632E+04 1.008515669E+02 2.416025674E+00
 -2.321999350E-01 -3.600909731E-02 6.979562551E+04 1.006419146E+02 2.568379906E+00
 -2.335348680E-01 -2.654877018E-02 6.978772186E+04 1.007266982E+02 2.616794438E+00
 -2.100445292E-01 -3.279013111E-02 6.980861445E+04 1.004937076E+02 2.777373631E+00
 -2.112579924E-01 -2.421161163E-02 6.980022236E+04 1.005837016E+02 2.832248984E+00
 -1.897386270E-01 -2.983778434E-02 6.982342012E+04 1.003244450E+02 3.001146213E+00
 -1.908407717E-01 -2.206747644E-02 6.981451698E+04 1.004198628E+02 3.063335716E+00
 -1.711383038E-01 -2.713166597E-02 6.984030617E+04 1.001309940E+02 3.240599445E+00
 -1.721384901E-01 -2.010169744E-02 6.983086837E+04 1.002320534E+02 3.311062590E+00
 -1.541103591E-01 -2.465289124E-02 6.985957504E+04 9.990973937E+01 3.496692178E+00
 -1.550172149E-01 -1.830068713E-02 6.984957775E+04 1.000166635E+02 3.576508819E+00
 -1.385315403E-01 -2.238396783E-02 6.988157382E+04 9.965650141E+01 3.770452565E+00
 -1.393530158E-01 -1.665185491E-02 6.987099070E+04 9.976951982E+01 3.860838942E+00
 -1.242878218E-01 -2.030869055E-02 6.990670117E+04 9.936643856E+01 4.062980746E+00
 -1.250312400E-01 -1.514353052E-02 6.989550404E+04 9.948579043E+01 4.165306776E+00
 -1.112737340E-01 -1.841204400E-02 6.993541548E+04 9.903393298E+01 4.375468711E+00
 -1.119458383E-01 -1.376489351E-02 6.992357379E+04 9.915986937E+01 4.491279536E+00
 -9.939174207E-02 -1.668011300E-02 6.996824536E+04 9.865242935E+01 4.709216179E+00
 -9.999873930E-02 -1.250590844E-02 6.995572568E+04 9.878521292E+01 4.840259416E+00
 -8.855166664E-02 -1.510000017E-02 7.000580340E+04 9.821424818E+01 5.065639212E+00
 -8.909926819E-02 -1.135726554E-02 6.999256878E+04 9.835415774E+01 5.213894635E+00
 -7.867014759E-02 -1.365975037E-02 7.004880038E+04 9.771032477E+01 5.446279012E+00
 -7.916360667E-02 -1.031032649E-02 7.003480871E+04 9.785767314E+01 5.614002368E+00
 -6.967014516E-02 -1.234828139E-02 7.009806593E+04 9.712996043E+01 5.852781929E+00
 -7.011429180E-02 -9.357074993E-03 7.008326867E+04 9.728510054E+01 6.042590352E+00
 -6.148047709E-02 -1.115532081E-02 7.015456637E+04 9.646031297E+01 6.286905273E+00
 -6.187975046E-02 -8.490071881E-03 7.013891103E+04 9.662359534E+01 6.501860586E+00
 -5.403538889E-02 -1.007134817E-02 7.021944747E+04 9.568616090E+01 6.750631760E+00
 -5.439386730E-02 -7.702414249E-03 7.020287734E+04 9.585792737E+01 6.994252725E+00
 -4.727415488E-02 -9.087541463E-03 7.029402662E+04 9.478841794E+01 7.246049323E+00
 -4.759558354E-02 -6.987697967E-03 7.027647760E+04 9.496902415E+01 7.522400142E+00
 -4.114070795E-02 -8.195728795E-03 7.037980807E+04 9.374739467E+01 7.777168953E+00
 -4.142852472E-02 -6.339983763E-03 7.036119836E+04 9.393735294E+01 8.090833805E+00
 -3.559151161E-02 -7.339869253E-03 7.047795573E+04 9.254007844E+01 8.364489133E+00
 -3.584752460E-02 -5.709377237E-03 7.045815876E+04 9.274024469E+01 8.720066095E+00
 -3.060596554E-02 -6.352757359E-03 7.058975392E+04 9.114065428E+01 9.035396647E+00
 -3.082692601E-02 -4.942397056E-03 7.056861203E+04 9.135214172E+01 9.437047383E+00
 -2.610044995E-02 -5.461359723E-03 7.071836636E+04 8.950379213E+01 9.794599983E+00
 -2.628972970E-02 -4.249927880E-03 7.069568616E+04 8.972820552E+01 1.024709372E+01
 -2.203468525E-02 -4.657609652E-03 7.086775713E+04 8.755776746E+01 1.064653232E+01
 -2.219537345E-02 -3.625683990E-03 7.084330127E+04 8.779660200E+01 1.115712663E+01
 -1.837153507E-02 -3.934060279E-03 7.104238956E+04 8.523000422E+01 1.161328672E+01
 -1.850646037E-02 -3.063860330E-03 7.101590005E+04 8.548592500E+01 1.219011323E+01
 -1.507677192E-02 -3.283841524E-03 7.124705177E+04 8.239208431E+01 1.272993139E+01
 -1.518852287E-02 -2.559099852E-03 7.121812379E+04 8.266611200E+01 1.338530250E+01
 -1.211885983E-02 -2.700619703E-03 7.149043243E+04 7.891735266E+01 1.403328627E+01
 -1.220980376E-02 -2.106462722E-03 7.145878529E+04 7.921621376E+01 1.477612372E+01
 -9.468752647E-03 -2.178559598E-03 7.177817634E+04 7.444926473E+01 1.562597531E+01
 -9.541053168E-03 -1.701397309E-03 7.174282268E+04 7.476691479E+01 1.648104196E+01
 -7.099707020E-03 -1.712288761E-03 7.213086043E+04 6.882787614E+01 1.751868554E+01
 -7.155340101E-03 -1.339712771E-03 7.209223362E+04 6.917951546E+01 1.850575937E+01
 -4.987108846E-03 -1.296863872E-03 7.253130221E+04 6.071823988E+01 2.018311670E+01
 -5.027877746E-03 -1.017553122E-03 7.248500519E+04 6.107747483E+01 2.135921282E+01
 -3.108312346E-03 -9.277385906E-04 7.301757379E+04 5.051025609E+01 2.371785141E+01
 -3.135861384E-03 -7.313722278E-04 7.296616765E+04 5.094347373E+01 2.512712310E+01
 -1.442490706E-03 -6.007320682E-04 7.336558886E+04 3.531134121E+01 3.145327857E+01
 -1.458317991E-03 -4.779088988E-04 7.330284414E+04 3.587904771E+01 3.306210349E+01
 2.950318352E-05 -3.119902977E-04 7.342980680E+04 2.526885762E+01 3.731646695E+01
 2.403397564E-05 -2.541545121E-04 7.335409412E+04 2.587310341E+01 3.901703117E+01
 -4.904860300E+00 -3.743658139E-01 6.969763042E+04 1.017512874E+02 1.285850785E-02
 -4.531148460E+00 -3.337449504E-01 6.969770060E+04 1.017501565E+02 2.013522842E-02
 -4.185002464E+00 -2.961121830E-01 6.969782597E+04 1.017479812E+02 3.691620332E-02
 -3.864442761E+00 -2.612531021E-01 6.969792339E+04 1.017459112E+02 5.690008877E-02
 -3.567629172E+00 -2.289683865E-01 6.969803323E+04 1.017437799E+02 7.860746326E-02
 -3.290919103E+00 -2.095607893E-01 6.969821363E+04 1.017411844E+02 1.017960347E-01
 -3.034416555E+00 -1.935276219E-01 6.969845484E+04 1.017380667E+02 1.264924221E-01
 -2.797044342E+00 -1.786827170E-01 6.969872549E+04 1.017346682E+02 1.527903518E-01
 -2.577417810E+00 -1.649402065E-01 6.969903093E+04 1.017309158E+02 1.808178157E-01
 -2.374250368E+00 -1.522202981E-01 6.969937994E+04 1.017267193E+02 2.107370920E-01
 -2.186346661E+00 -1.404488512E-01 6.969977593E+04 1.017220308E+02 2.427267696E-01
 -2.012596208E+00 -1.295569832E-01 6.970022439E+04 1.017167824E+02 2.769803822E-01
 -1.851967471E+00 -1.194807027E-01 6.970073274E+04 1.017108895E+02 3.137097867E-01
 -1.703502349E+00 -1.101605692E-01 6.970130897E+04 1.017042602E+02 3.531451772E-01
 -1.566311034E+00 -1.015413756E-01 6.970196208E+04 1.016967902E+02 3.955354900E-01
 -1.439567236E+00 -9.357185328E-02 6.970270250E+04 1.016883596E+02 4.411493931E-01
 -1.322503725E+00 -8.620439819E-02 6.970354224E+04 1.016788303E+02 4.902761749E-01
 -1.214408193E+00 -7.939481524E-02 6.970449508E+04 1.016680441E+02 5.432267032E-01
 -1.114619395E+00 -7.310208108E-02 6.970557690E+04 1.016558189E+02 6.003345049E-01
 -1.022523556E+00 -6.728812322E-02 6.970680600E+04 1.016419446E+02 6.619568935E-01
 -9.375510353E-01 -6.191761444E-02 6.970820347E+04 1.016261793E+02 7.284761046E-01
 -8.591732110E-01 -5.695778154E-02 6.970979363E+04 1.016082436E+02 8.003004682E-01
 -7.868995894E-01 -5.237822723E-02 6.971160452E+04 1.015878156E+02 8.778655274E-01
 -7.202751110E-01 -4.815076427E-02 6.971366850E+04 1.015645232E+02 9.616352776E-01
 -6.588776448E-01 -4.424926094E-02 6.971602288E+04 1.015379374E+02 1.052103396E+00
 -6.023156567E-01 -4.064949705E-02 6.971871068E+04 1.015075626E+02 1.149794402E+00
 -5.502260409E-01 -3.732902957E-02 6.972178146E+04 1.014728276E+02 1.255264607E+00
 -5.022721013E-01 -3.426706724E-02 6.972529234E+04 1.014330730E+02 1.369103709E+00
 -4.581416753E-01 -3.144435345E-02 6.972930911E+04 1.013875383E+02 1.491935841E+00
 -4.175453871E-01 -2.884305681E-02 6.973390754E+04 1.013353493E+02 1.624421434E+00
 -3.802150239E-01 -2.644666869E-02 6.973917443E+04 1.012754895E+02 1.767259551E+00
 -3.459020258E-01 -2.423990734E-02 6.974520955E+04 1.012067929E+02 1.921180536E+00
 -3.143760810E-01 -2.220862813E-02 6.975212821E+04 1.011279316E+02 2.086955520E+00
 -2.854238196E-01 -2.033973933E-02 6.976006300E+04 1.010373611E+02 2.265426974E+00
 -2.588475996E-01 -1.862112334E-02 6.976916510E+04 1.009333024E+02 2.457472308E+00
 -2.344643773E-01 -1.704156284E-02 6.977960751E+04 1.008137183E+02 2.663999400E+00
 -2.121046577E-01 -1.559067172E-02 6.979158927E+04 1.006762564E+02 2.885991625E+00
 -1.916115191E-01 -1.425883058E-02 6.980533866E+04 1.005182070E+02 3.124501860E+00
 -1.728397056E-01 -1.303712665E-02 6.982111694E+04 1.003364500E+02 3.380653664E+00
 -1.556547846E-01 -1.191729795E-02 6.983922348E+04 1.001273868E+02 3.655655672E+00
 -1.399323632E-01 -1.089168168E-02 6.986000170E+04 9.988685688E+01 3.950819707E+00
 -1.255573606E-01 -9.953166562E-03 6.988384577E+04 9.961004486E+01 4.267570230E+00
 -1.124233317E-01 -9.095149191E-03 6.991120841E+04 9.929136478E+01 4.607471081E+00
 -1.004318390E-01 -8.311494188E-03 6.994261129E+04 9.892429689E+01 4.972251712E+00
 -8.949186932E-02 -7.596498000E-03 6.997865846E+04 9.850120829E+01 5.363828166E+00
 -7.951929161E-02 -6.944856161E-03 7.002004967E+04 9.801310168E+01 5.784335809E+00
 -7.043635409E-02 -6.351633814E-03 7.006760096E+04 9.744936280E+01 6.236158806E+00
 -6.217121694E-02 -5.812239269E-03 7.012226529E+04 9.679719900E+01 6.721981446E+00
 -5.465751854E-02 -5.322400221E-03 7.018517334E+04 9.604143556E+01 7.244841632E+00
 -4.783397288E-02 -4.878142271E-03 7.025762277E+04 9.516305285E+01 7.808166615E+00
 -4.164399581E-02 -4.475769677E-03 7.034108983E+04 9.414250500E+01 8.417070088E+00
 -3.604087851E-02 -4.071553481E-03 7.043668696E+04 9.295732478E+01 9.090397424E+00
 -3.099399590E-02 -3.525724325E-03 7.054563222E+04 9.158219192E+01 9.854733591E+00
 -2.643304346E-02 -3.033107044E-03 7.067099757E+04 8.997280628E+01 1.071807606E+01
 -2.231724709E-02 -2.589204436E-03 7.081663828E+04 8.805709402E+01 1.169042627E+01
 -1.860901461E-02 -2.189860312E-03 7.098698744E+04 8.576508398E+01 1.279568382E+01
 -1.527369847E-02 -1.831237194E-03 7.118644719E+04 8.296519413E+01 1.407802155E+01
 -1.227937570E-02 -1.509795175E-03 7.142400252E+04 7.954282973E+01 1.556934746E+01
 -9.596643696E-03 -1.222271856E-03 7.170362124E+04 7.511797494E+01 1.740170361E+01
 -7.198430857E-03 -9.656632568E-04 7.204898294E+04 6.957102665E+01 1.957389010E+01
 -5.059820918E-03 -7.372056030E-04 7.243306574E+04 6.147920101E+01 2.261898388E+01
 -3.157890027E-03 -5.343574998E-04 7.290827632E+04 5.143806287E+01 2.658842819E+01
 -1.471555566E-03 -3.547816219E-04 7.323276883E+04 3.652114188E+01 3.472852176E+01
 1.856476775E-05 -1.963187265E-04 7.327025655E+04 2.654585651E+01 4.080687645E+01
 -4.916318661E+00 -1.667794339E-01 6.969675599E+04 1.017547412E+02 1.335329827E-02
 -4.541395930E+00 -1.443403348E-01 6.969679565E+04 1.017541001E+02 2.065126375E-02
 -4.194128395E+00 -1.235482838E-01 6.969686630E+04 1.017528876E+02 3.747733392E-02
 -3.872530086E+00 -1.042851462E-01 6.969692028E+04 1.017517398E+02 5.751536335E-02
 -3.574754856E+00 -8.644111427E-02 6.969698621E+04 1.017505174E+02 7.929189035E-02
 -3.297446509E+00 -7.848517224E-02 6.969710924E+04 1.017488973E+02 1.025817476E-01
 -3.040439645E+00 -7.265189099E-02 6.969728273E+04 1.017468221E+02 1.274125572E-01
 -2.802600742E+00 -6.724613045E-02 6.969748091E+04 1.017444935E+02 1.538606824E-01
 -2.582542419E+00 -6.223708474E-02 6.969770798E+04 1.017418527E+02 1.820535274E-01
 -2.378975557E+00 -5.759612407E-02 6.969797156E+04 1.017388228E+02 2.121582847E-01
 -2.190702447E+00 -5.329664278E-02 6.969827483E+04 1.017353620E+02 2.443571638E-01
 -2.016610423E+00 -4.931391825E-02 6.969862262E+04 1.017314109E+02 2.788470630E-01
 -1.855665920E+00 -4.562498000E-02 6.969902164E+04 1.017268940E+02 3.158440451E-01
 -1.706908951E+00 -4.220848821E-02 6.969947921E+04 1.017217278E+02 3.555831420E-01
 -1.569447958E+00 -3.904462082E-02 6.970000366E+04 1.017158164E+02 3.983186362E-01
 -1.442455026E+00 -3.611496880E-02 6.970060473E+04 1.017090483E+02 4.443253262E-01
 -1.325161417E+00 -3.340243875E-02 6.970129370E+04 1.017012943E+02 4.938996004E-01
 -1.216853421E+00 -3.089116253E-02 6.970208365E+04 1.016924046E+02 5.473604996E-01
 -1.116868493E+00 -2.856641323E-02 6.970298970E+04 1.016822060E+02 6.050509423E-01
 -1.024591652E+00 -2.641452698E-02 6.970402938E+04 1.016704972E+02 6.673390184E-01
 -9.394521365E-01 -2.442283033E-02 6.970522302E+04 1.016570454E+02 7.346193099E-01
 -8.609202860E-01 -2.257957256E-02 6.970659415E+04 1.016415801E+02 8.073142723E-01
 -7.885046426E-01 -2.087386265E-02 6.970817004E+04 1.016237882E+02 8.858756331E-01
 -7.217492519E-01 -1.929561051E-02 6.970998223E+04 1.016033068E+02 9.707858338E-01
 -6.602311534E-01 -1.783547204E-02 6.971206725E+04 1.015797154E+02 1.062559455E+00
 -6.035580433E-01 -1.648479780E-02 6.971446732E+04 1.015525276E+02 1.161744733E+00
 -5.513661019E-01 -1.523558491E-02 6.971723122E+04 1.015211801E+02 1.268925217E+00
 -5.033179715E-01 -1.408043185E-02 6.972041529E+04 1.014850221E+02 1.384720847E+00
 -4.591008757E-01 -1.301249596E-02 6.972408454E+04 1.014433008E+02 1.509790330E+00
 -4.184248697E-01 -1.202545340E-02 6.972831391E+04 1.013951480E+02 1.644833120E+00
 -3.810212135E-01 -1.111346128E-02 6.973318968E+04 1.013395631E+02 1.790590004E+00
 -3.466408580E-01 -1.027112181E-02 6.973881103E+04 1.012753836E+02 1.947849184E+00
 -3.150530385E-01 -9.493448391E-03 6.974529181E+04 1.012012740E+02 2.117436822E+00
 -2.860439651E-01 -8.775833366E-03 6.975276335E+04 1.011157095E+02 2.300227970E+00
 -2.594156067E-01 -8.114017528E-03 6.976137682E+04 1.010169237E+02 2.497183990E+00
 -2.349845590E-01 -7.504061210E-03 6.977130458E+04 1.009028799E+02 2.709315084E+00
 -2.125809932E-01 -6.942317013E-03 6.978274383E+04 1.007712381E+02 2.937672804E+00
 -1.920476781E-01 -6.425404156E-03 6.979592120E+04 1.006192998E+02 3.183399550E+00
 -1.732390714E-01 -5.950184505E-03 6.981109644E+04 1.004439552E+02 3.447730608E+00
 -1.560204752E-01 -5.513740338E-03 6.982856689E+04 1.002416206E+02 3.731996818E+00
 -1.402672512E-01 -5.113353894E-03 6.984867331E+04 1.000081556E+02 4.037645557E+00
 -1.258640914E-01 -4.746488768E-03 6.987180667E+04 9.973876719E+01 4.366256508E+00
 -1.127043406E-01 -4.410773178E-03 6.989841580E+04 9.942789777E+01 4.719570755E+00
 -1.006893669E-01 -4.103985130E-03 6.992901758E+04 9.906906587E+01 5.099520011E+00
 -8.972797769E-02 -3.824039449E-03 6.996421006E+04 9.865468418E+01 5.508255281E+00
 -7.973587594E-02 -3.568976602E-03 7.000468569E+04 9.817580851E+01 5.948193731E+00
 -7.063515668E-02 -3.336953232E-03 7.005125190E+04 9.762188695E+01 6.422062141E+00
 -6.235383863E-02 -3.126234265E-03 7.010485125E+04 9.698019368E+01 6.932976149E+00
 -5.482542967E-02 -2.935186335E-03 7.016660208E+04 9.623564608E+01 7.484481386E+00
 -4.798852340E-02 -2.762272330E-03 7.023778674E+04 9.536930109E+01 8.080644711E+00
 -4.178642465E-02 -2.606046937E-03 7.031986845E+04 9.436167045E+01 8.727056823E+00
 -3.617097058E-02 -2.428962032E-03 7.041394274E+04 9.319064508E+01 9.442331912E+00
 -3.110665685E-02 -2.104944495E-03 7.052120571E+04 9.183079354E+01 1.025263567E+01
 -2.652994913E-02 -1.812778284E-03 7.064471514E+04 9.023810629E+01 1.116691395E+01
 -2.239993287E-02 -1.549759427E-03 7.078823327E+04 8.834053193E+01 1.219804862E+01
 -1.867888648E-02 -1.313384984E-03 7.095618418E+04 8.606978985E+01 1.337065744E+01
 -1.533204317E-02 -1.101341136E-03 7.115269486E+04 8.329254784E+01 1.473398657E+01
 -1.232737012E-02 -9.114917091E-04 7.138699778E+04 7.990016720E+01 1.632062492E+01
 -9.635363544E-03 -7.418670991E-04 7.166192552E+04 7.550494023E+01 1.827543202E+01
 -7.228858681E-03 -5.906535184E-04 7.200279570E+04 7.000347758E+01 2.060078865E+01
 -5.082853493E-03 -4.561825150E-04 7.237780845E+04 6.193576470E+01 2.384198905E+01
 -3.174345191E-03 -3.369203438E-04 7.284574020E+04 5.198332497E+01 2.801395008E+01
 -1.482178527E-03 -2.314562309E-04 7.315709429E+04 3.722194406E+01 3.638118724E+01
 1.309555987E-05 -1.384829409E-04 7.318100448E+04 2.730240595E+01 4.259969957E+01
 -4.919121367E+00 4.110405248E-02 6.969587870E+04 1.017582204E+02 1.365986543E-02
 -4.543651304E+00 4.533831712E-02 6.969588783E+04 1.017580668E+02 2.098445725E-02
 -4.195876839E+00 4.926833823E-02 6.969590342E+04 1.017578148E+02 3.786636472E-02
 -3.873809097E+00 5.291581646E-02 6.969591382E+04 1.017575873E+02 5.796197865E-02
 -3.575599233E+00 5.630093788E-02 6.969593610E+04 1.017572736E+02 7.979564807E-02
 -3.298180375E+00 5.278764848E-02 6.969600156E+04 1.017566358E+02 1.031583717E-01
 -3.041120766E+00 4.840550275E-02 6.969610657E+04 1.017556160E+02 1.280873041E-01
 -2.803233062E+00 4.435774109E-02 6.969623150E+04 1.017543700E+02 1.546514337E-01
 -2.583129597E+00 4.062002275E-02 6.969637950E+04 1.017528528E+02 1.829778276E-01
 -2.379520985E+00 3.716973635E-02 6.969655685E+04 1.017510024E+02 2.132368465E-01
 -2.191209270E+00 3.398587992E-02 6.969676644E+04 1.017487828E+02 2.456133780E-01
 -2.017081556E+00 3.104894850E-02 6.969701253E+04 1.017461432E+02 2.803070196E-01
 -1.856104066E+00 2.834082917E-02 6.969730104E+04 1.017430175E+02 3.175374873E-01
 -1.707316613E+00 2.584470289E-02 6.969763861E+04 1.017393309E+02 3.575443684E-01
 -1.569827459E+00 2.354495282E-02 6.969803286E+04 1.017349962E+02 4.005872479E-01
 -1.442808515E+00 2.142707868E-02 6.969849280E+04 1.017299110E+02 4.469471003E-01
 -1.325490887E+00 1.947761678E-02 6.969902898E+04 1.017239549E+02 4.969275003E-01
 -1.217160718E+00 1.768406547E-02 6.969965369E+04 1.017169874E+02 5.508557813E-01
 -1.117155327E+00 1.603481548E-02 6.970038127E+04 1.017088446E+02 6.090844013E-01
 -1.024859607E+00 1.451908516E-02 6.970122846E+04 1.016993346E+02 6.719924152E-01
 -9.397026784E-01 1.312686001E-02 6.970221473E+04 1.016882340E+02 7.399869952E-01
 -8.611547728E-01 1.184883656E-02 6.970336280E+04 1.016752822E+02 8.135050167E-01
 -7.887243314E-01 1.067637010E-02 6.970469906E+04 1.016601756E+02 8.930146901E-01
 -7.219553067E-01 9.601426237E-03 6.970625419E+04 1.016425609E+02 9.790172548E-01
 -6.604246513E-01 8.616536057E-03 6.970806385E+04 1.016220275E+02 1.072048744E+00
 -6.037399814E-01 7.714754587E-03 6.971016936E+04 1.015980983E+02 1.172681805E+00
 -5.515374027E-01 6.889622567E-03 6.971261863E+04 1.015702198E+02 1.281527483E+00
 -5.034794884E-01 6.135131265E-03 6.971546713E+04 1.015377502E+02 1.399237212E+00
 -4.592533981E-01 5.445690235E-03 6.971877896E+04 1.014999460E+02 1.526505011E+00
 -4.185691276E-01 4.816097866E-03 6.972262817E+04 1.014559478E+02 1.664069678E+00
 -3.811578815E-01 4.241514576E-03 6.972710012E+04 1.014047612E+02 1.812717212E+00
 -3.467705599E-01 3.717438504E-03 6.973229322E+04 1.013452415E+02 1.973282894E+00
 -3.151763502E-01 3.239683536E-03 6.973832062E+04 1.012760591E+02 2.146661257E+00
 -2.861614185E-01 2.804359494E-03 6.974531200E+04 1.011956826E+02 2.333790420E+00
 -2.595276925E-01 2.407854296E-03 6.975341687E+04 1.011023636E+02 2.535669960E+00
 -2.350917299E-01 2.046817878E-03 6.976280734E+04 1.009940838E+02 2.753403937E+00
 -2.126836664E-01 1.718147660E-03 6.977367960E+04 1.008685105E+02 2.988158604E+00
 -1.921462378E-01 1.418975312E-03 6.978625795E+04 1.007229572E+02 3.241160144E+00
 -1.733338711E-01 1.146654587E-03 6.980079986E+04 1.005543306E+02 3.513746607E+00
 -1.561118400E-01 8.987499639E-04 6.981760038E+04 1.003590633E+02 3.807376413E+00
 -1.403554799E-01 6.730258712E-04 6.983699726E+04 1.001330385E+02 4.123639593E+00
 -1.259494580E-01 4.674362814E-04 6.985937768E+04 9.987149054E+01 4.464276218E+00
 -1.127870967E-01 2.801144792E-04 6.988518596E+04 9.956889540E+01 4.831210547E+00
 -1.007697431E-01 1.093628553E-04 6.991493330E+04 9.921881780E+01 5.226587092E+00
 -8.980618514E-02 -4.635738183E-05 6.994921055E+04 9.881372671E+01 5.652805772E+00
 -7.981210807E-02 -1.884366274E-04 6.998870138E+04 9.834474498E+01 6.112580654E+00
 -7.070959052E-02 -3.181274789E-04 7.003420263E+04 9.780140289E+01 6.608991282E+00
 -6.242663621E-02 -4.365554410E-04 7.008664349E+04 9.717107738E+01 7.145570835E+00
 -5.489673927E-02 -5.447296360E-04 7.014712622E+04 9.643881470E+01 7.726381015E+00
 -4.805848076E-02 -6.435533806E-04 7.021691342E+04 9.558583704E+01 8.356151888E+00
 -4.185515404E-02 -7.338346167E-04 7.029745325E+04 9.459259716E+01 9.041092235E+00
 -3.623723217E-02 -7.842177475E-04 7.038985227E+04 9.343706578E+01 9.799485375E+00
 -3.116441985E-02 -6.823065805E-04 7.049529279E+04 9.209362600E+01 1.065674157E+01
 -2.658002963E-02 -5.908599478E-04 7.061679476E+04 9.051890258E+01 1.162275044E+01
 -2.244307864E-02 -5.089688920E-04 7.075799277E+04 8.864119215E+01 1.271331933E+01
 -1.871578230E-02 -4.357853867E-04 7.092331425E+04 8.639389473E+01 1.395404604E+01
 -1.536331587E-02 -3.705208483E-04 7.111659126E+04 8.364195153E+01 1.539820533E+01
 -1.235359313E-02 -3.124443433E-04 7.134735694E+04 8.028209894E+01 1.707883175E+01
 -9.657061119E-03 -2.608804928E-04 7.161723985E+04 7.592129865E+01 1.915101075E+01
 -7.246509788E-03 -2.152070705E-04 7.195313120E+04 7.046912800E+01 2.162566391E+01
 -5.096895403E-03 -1.748522501E-04 7.231887736E+04 6.245432266E+01 2.505512748E+01
 -3.185176793E-03 -1.392911950E-04 7.277838667E+04 5.257298037E+01 2.943791884E+01
 -1.490163380E-03 -1.080408283E-04 7.307558295E+04 3.796636592E+01 3.805295044E+01
 7.626351982E-06 -8.064715534E-05 7.308609029E+04 2.814809638E+01 4.441558284E+01
 -4.913313371E+00 2.489252871E-01 6.969499890E+04 1.017617126E+02 1.372153691E-02
 -4.537956083E+00 2.349592340E-01 6.969497725E+04 1.017620506E+02 2.106063036E-02
 -4.190286101E+00 2.220314160E-01 6.969493718E+04 1.017627675E+02 3.798255301E-02
 -3.868315143E+00 2.100671417E-01 6.969490348E+04 1.017634668E+02 5.813965156E-02
 -3.570194912E+00 1.989970026E-01 6.969488186E+04 1.017640657E+02 8.004991450E-02
 -3.293150824E+00 1.840171535E-01 6.969488941E+04 1.017644157E+02 1.035013261E-01
 -3.036487694E+00 1.694227851E-01 6.969492535E+04 1.017644592E+02 1.285303491E-01
 -2.798966907E+00 1.559244707E-01 6.969497639E+04 1.017643041E+02 1.552031362E-01
 -2.579202939E+00 1.434427392E-01 6.969504468E+04 1.017639192E+02 1.836495142E-01
 -2.375908387E+00 1.319037540E-01 6.969513502E+04 1.017632582E+02 2.140436785E-01
 -2.187887146E+00 1.212389198E-01 6.969525003E+04 1.017622907E+02 2.465740718E-01
 -2.014028032E+00 1.113845177E-01 6.969539338E+04 1.017609746E+02 2.814442040E-01
 -1.853298863E+00 1.022813642E-01 6.969557019E+04 1.017592535E+02 3.188781767E-01
 -1.704740933E+00 9.387449336E-02 6.969578635E+04 1.017570617E+02 3.591204671E-01
 -1.567463877E+00 8.611286067E-02 6.969604880E+04 1.017543210E+02 4.024361696E-01
 -1.440640884E+00 7.894906696E-02 6.969636576E+04 1.017509382E+02 4.491125345E-01
 -1.323504246E+00 7.233910131E-02 6.969674701E+04 1.017468023E+02 4.994603408E-01
 -1.215341206E+00 6.624210139E-02 6.969720403E+04 1.017417826E+02 5.538152055E-01
 -1.115490104E+00 6.062013035E-02 6.969775033E+04 1.017357247E+02 6.125391082E-01
 -1.023336784E+00 5.543796898E-02 6.969840179E+04 1.017284469E+02 6.760220386E-01
 -9.383112459E-01 5.066292228E-02 6.969917702E+04 1.017197357E+02 7.446837128E-01
 -8.598845385E-01 4.626463949E-02 6.970009781E+04 1.017093408E+02 8.189753700E-01
 -7.875658615E-01 4.221494656E-02 6.970118964E+04 1.016969691E+02 8.993816502E-01
 -7.208998708E-01 3.848769056E-02 6.970248226E+04 1.016822778E+02 9.864225488E-01
 -6.594641720E-01 3.505859498E-02 6.970401034E+04 1.016648668E+02 1.080655444E+00
 -6.028669865E-01 3.190512542E-02 6.970581426E+04 1.016442694E+02 1.182677193E+00
 -5.507449816E-01 2.900636500E-02 6.970794095E+04 1.016199426E+02 1.293126329E+00
 -5.027612513E-01 2.634289881E-02 6.971044487E+04 1.015912548E+02 1.412685375E+00
 -4.586034376E-01 2.389670698E-02 6.971338916E+04 1.015574730E+02 1.542083269E+00
 -4.179819840E-01 2.165106569E-02 6.971684683E+04 1.015177475E+02 1.682098381E+00
 -3.806285097E-01 1.959045573E-02 6.972090224E+04 1.014710950E+02 1.833560511E+00
 -3.462942988E-01 1.770047810E-02 6.972565270E+04 1.014163768E+02 1.997355777E+00
 -3.147488948E-01 1.596777609E-02 6.973121039E+04 1.013522818E+02 2.174428177E+00
 -2.857787934E-01 1.437996353E-02 6.973770416E+04 1.012772890E+02 2.365791563E+00
 -2.591862275E-01 1.292555858E-02 6.974528158E+04 1.011896401E+02 2.572516221E+00