TITLE     = "fluent22.1.0  build-id: 10213"
VARIABLES = "X"
"Y"
"Pressure"
"X Velocity"
"Y Velocity"
DATASETAUXDATA Common.DensityVar="23"
DATASETAUXDATA Common.PressureVar="3"
DATASETAUXDATA Common.TemperatureVar="12"
DATASETAUXDATA Common.TurbulentDynamicViscosityVar="17"
DATASETAUXDATA Common.UVar="5"
DATASETAUXDATA Common.VectorVarsAreVelocity="TRUE"
DATASETAUXDATA Common.ViscosityVar="25"
DATASETAUXDATA Common.VVar="7"
ZONE T="fluid"
 STRANDID=1, SOLUTIONTIME=0.9925
 Nodes=10240, Elements=10080, ZONETYPE=FEQuadrilateral
 DATAPACKING=POINT
 DT=(DOUBLE DOUBLE DOUBLE DOUBLE DOUBLE )
 -4.856290020E+00 -7.872354469E-01 6.969970854E+04 1.017432304E+02 1.207136827E-02
 -4.486970233E+00 -7.104481508E-01 6.969985038E+04 1.017409611E+02 1.985092907E-02
 -4.884823481E+00 -5.813004056E-01 6.969878018E+04 1.017468251E+02 1.305329836E-02
 -4.512983743E+00 -5.225675857E-01 6.969888709E+04 1.017450940E+02 2.087096352E-02
 -4.144892080E+00 -6.393155503E-01 6.970010134E+04 1.017365683E+02 3.784627654E-02
 -4.168571565E+00 -4.681578913E-01 6.969907710E+04 1.017417442E+02 3.892658840E-02
 -3.828099310E+00 -5.734318697E-01 6.970029687E+04 1.017323723E+02 5.933401342E-02
 -3.849617335E+00 -4.177611015E-01 6.969922457E+04 1.017385446E+02 6.045966462E-02
 -3.534773392E+00 -5.124197868E-01 6.970050847E+04 1.017281137E+02 8.265696214E-02
 -3.554290111E+00 -3.710887968E-01 6.969938636E+04 1.017352869E+02 8.384745432E-02
 -3.260707452E+00 -4.702527946E-01 6.970082192E+04 1.017232341E+02 1.074732407E-01
 -3.278663796E+00 -3.402786839E-01 6.969963768E+04 1.017314697E+02 1.087844173E-01
 -3.006553741E+00 -4.339501602E-01 6.970121976E+04 1.017176777E+02 1.338091163E-01
 -3.023114928E+00 -3.140896486E-01 6.969996429E+04 1.017270341E+02 1.352929111E-01
 -2.771355022E+00 -4.003467950E-01 6.970165880E+04 1.017117688E+02 1.618235627E-01
 -2.786625119E+00 -2.898455857E-01 6.970032662E+04 1.017222812E+02 1.635042163E-01
 -2.553739335E+00 -3.692474804E-01 6.970214675E+04 1.017054055E+02 1.916594994E-01
 -2.567814878E+00 -2.674058714E-01 6.970073140E+04 1.017171199E+02 1.935593077E-01
 -2.352431888E+00 -3.404708169E-01 6.970269442E+04 1.016984738E+02 2.234811818E-01
 -2.365402412E+00 -2.466398346E-01 6.970118883E+04 1.017114431E+02 2.256269590E-01
 -2.166248287E+00 -3.138482600E-01 6.970330606E+04 1.016909099E+02 2.574745819E-01
 -2.178196821E+00 -2.274260625E-01 6.970170264E+04 1.017051946E+02 2.598963072E-01
 -1.994088228E+00 -2.892232244E-01 6.970398878E+04 1.016826239E+02 2.938419721E-01
 -2.005091763E+00 -2.096517559E-01 6.970227914E+04 1.016982945E+02 2.965728641E-01
 -1.834929635E+00 -2.664502498E-01 6.970475162E+04 1.016735106E+02 3.328032041E-01
 -1.845059548E+00 -1.932121280E-01 6.970292669E+04 1.016906459E+02 3.358802381E-01
 -1.687823186E+00 -2.453942250E-01 6.970560401E+04 1.016634581E+02 3.745962550E-01
 -1.697145644E+00 -1.780098459E-01 6.970365410E+04 1.016821454E+02 3.780609535E-01
 -1.551887233E+00 -2.259296649E-01 6.970655649E+04 1.016523415E+02 4.194781651E-01
 -1.560463559E+00 -1.639545107E-01 6.970447122E+04 1.016726773E+02 4.233771976E-01
 -1.426303057E+00 -2.079400389E-01 6.970762108E+04 1.016400200E+02 4.677255354E-01
 -1.434190083E+00 -1.509621737E-01 6.970538938E+04 1.016621095E+02 4.721116272E-01
 -1.310310464E+00 -1.913171448E-01 6.970881136E+04 1.016263350E+02 5.196352685E-01
 -1.317560846E+00 -1.389548858E-01 6.970642147E+04 1.016502925E+02 5.245682093E-01
 -1.203203673E+00 -1.759605268E-01 6.971014273E+04 1.016111074E+02 5.755254663E-01
 -1.209866193E+00 -1.278602793E-01 6.970758220E+04 1.016370558E+02 5.810731927E-01
 -1.104327500E+00 -1.617769338E-01 6.971163268E+04 1.015941339E+02 6.357363181E-01
 -1.110447343E+00 -1.176111778E-01 6.970888834E+04 1.016222051E+02 6.419761409E-01
 -1.013073796E+00 -1.486798151E-01 6.971330115E+04 1.015751837E+02 7.006310100E-01
 -1.018692810E+00 -1.081452339E-01 6.971035911E+04 1.016055182E+02 7.076509549E-01
 -9.288781405E-01 -1.365888516E-01 6.971517087E+04 1.015539937E+02 7.705966370E-01
 -9.340350735E-01 -9.940459109E-02 6.971201654E+04 1.015867405E+02 7.784969472E-01
 -8.512167574E-01 -1.254295185E-01 6.971726778E+04 1.015302636E+02 8.460449935E-01
 -8.559474835E-01 -9.133557043E-02 6.971388586E+04 1.015655801E+02 8.549399041E-01
 -7.796036485E-01 -1.151326798E-01 6.971962155E+04 1.015036505E+02 9.274134769E-01
 -7.839413737E-01 -8.388837774E-02 6.971599602E+04 1.015417021E+02 9.374332421E-01
 -7.135879253E-01 -1.056342093E-01 6.972226610E+04 1.014737621E+02 1.015165704E+00
 -7.175633809E-01 -7.701683156E-02 6.971838024E+04 1.015147220E+02 1.026459000E+00
 -6.527513264E-01 -9.687463853E-02 6.972524024E+04 1.014401488E+02 1.109792921E+00
 -6.563929476E-01 -7.067810968E-02 6.972107668E+04 1.014841978E+02 1.122528854E+00
 -5.967059072E-01 -8.879882913E-02 6.972858842E+04 1.014022956E+02 1.211814371E+00
 -6.000399999E-01 -6.483251299E-02 6.972412913E+04 1.014496216E+02 1.226184850E+00
 -5.450918907E-01 -8.135566699E-02 6.973236158E+04 1.013596123E+02 1.321776462E+00
 -5.481427860E-01 -5.944324549E-02 6.972758790E+04 1.014104096E+02 1.338001165E+00
 -4.975756686E-01 -7.449777778E-02 6.973661813E+04 1.013114224E+02 1.440256536E+00
 -5.003658664E-01 -5.447620910E-02 6.973151073E+04 1.013658898E+02 1.458585107E+00
 -4.538479412E-01 -6.818126155E-02 6.974142475E+04 1.012569435E+02 1.567861931E+00
 -4.563982434E-01 -4.989981234E-02 6.973596391E+04 1.013152925E+02 1.588575339E+00
 -4.136219873E-01 -6.236544539E-02 6.974685807E+04 1.011952863E+02 1.705226270E+00
 -4.159516215E-01 -4.568479166E-02 6.974102364E+04 1.012577278E+02 1.728649404E+00
 -3.766320551E-01 -5.701265263E-02 6.975300605E+04 1.011254241E+02 1.853015512E+00
 -3.787587903E-01 -4.180404474E-02 6.974677728E+04 1.011921698E+02 1.879517859E+00
 -3.426318663E-01 -5.208798747E-02 6.975996950E+04 1.010461804E+02 2.011930759E+00
 -3.445721185E-01 -3.823247463E-02 6.975332471E+04 1.011174431E+02 2.041922044E+00
 -3.113932233E-01 -4.755913399E-02 6.976786425E+04 1.009562046E+02 2.182716663E+00
 -3.131621558E-01 -3.494684416E-02 6.976078114E+04 1.010322084E+02 2.216649552E+00
 -2.827047162E-01 -4.339616846E-02 6.977682270E+04 1.008539358E+02 2.366144354E+00
 -2.843163307E-01 -3.192563978E-02 6.976927925E+04 1.009349115E+02 2.404548533E+00
 -2.563705184E-01 -3.957138410E-02 6.978699627E+04 1.007375891E+02 2.563011792E+00
 -2.578377408E-01 -2.914894430E-02 6.977897017E+04 1.008237590E+02 2.606497868E+00
 -2.322092684E-01 -3.605912758E-02 6.979855898E+04 1.006051062E+02 2.774170611E+00
 -2.335440280E-01 -2.659831799E-02 6.979002668E+04 1.006967022E+02 2.823408642E+00
 -2.100530294E-01 -3.283564644E-02 6.981171044E+04 1.004541178E+02 3.000519977E+00
 -2.112663326E-01 -2.425668750E-02 6.980264752E+04 1.005513754E+02 3.056264536E+00
 -1.897463223E-01 -2.987894688E-02 6.982667919E+04 1.002818975E+02 3.243007226E+00
 -1.908483205E-01 -2.210824228E-02 6.981706062E+04 1.003850539E+02 3.306113420E+00
 -1.711452271E-01 -2.716866137E-02 6.984372729E+04 1.000853017E+02 3.502638876E+00
 -1.721452805E-01 -2.013833813E-02 6.983352692E+04 1.001945993E+02 3.574069135E+00
 -1.541165472E-01 -2.468592566E-02 6.986315541E+04 9.986070110E+01 3.780489434E+00
 -1.550232835E-01 -1.833340753E-02 6.985234563E+04 9.997638980E+01 3.861326189E+00
 -1.385370335E-01 -2.241326471E-02 6.988530869E+04 9.960389913E+01 4.077714250E+00
 -1.393584025E-01 -1.668087666E-02 6.987386015E+04 9.972623688E+01 4.169176941E+00
 -1.242926628E-01 -2.033448705E-02 6.991058359E+04 9.931003297E+01 4.395555707E+00
 -1.250359872E-01 -1.516908857E-02 6.989846480E+04 9.943928971E+01 4.499018512E+00
 -1.112779681E-01 -1.843458741E-02 6.993943611E+04 9.897345716E+01 4.735365053E+00
 -1.119499904E-01 -1.378723258E-02 6.992661282E+04 9.910991774E+01 4.852378390E+00
 -9.939541550E-02 -1.669965699E-02 6.997239227E+04 9.858758156E+01 5.098621335E+00
 -1.000023421E-01 -1.252527938E-02 6.995882686E+04 9.873154676E+01 5.230939483E+00
 -8.855482664E-02 -1.511680110E-02 7.001006165E+04 9.814468449E+01 5.486947869E+00
 -8.910236799E-02 -1.137392172E-02 6.999571238E+04 9.829647603E+01 5.636558752E+00
 -7.867284135E-02 -1.367406377E-02 7.005315181E+04 9.763564264E+01 5.902126551E+00
 -7.916624972E-02 -1.032452036E-02 7.003797084E+04 9.779562631E+01 6.071296060E+00
 -6.967241928E-02 -1.236035860E-02 7.010248944E+04 9.704968202E+01 6.346087956E+00
 -7.011652374E-02 -9.369054792E-03 7.008642099E+04 9.721827855E+01 6.537433039E+00
 -6.148237697E-02 -1.116540592E-02 7.015903701E+04 9.637385878E+01 6.820916141E+00
 -6.188161574E-02 -8.500078714E-03 7.014202037E+04 9.655149488E+01 7.037503401E+00
 -5.403695823E-02 -1.007967540E-02 7.022393601E+04 9.559284437E+01 7.328989177E+00
 -5.439540866E-02 -7.710679462E-03 7.020590522E+04 9.577994500E+01 7.574355156E+00
 -4.727543520E-02 -9.094332829E-03 7.029849575E+04 9.468735297E+01 7.872864566E+00
 -4.759684158E-02 -6.994440932E-03 7.027937543E+04 9.488438246E+01 8.151095200E+00
 -4.114173826E-02 -8.201192349E-03 7.038420432E+04 9.363777891E+01 8.457177057E+00
 -4.142953755E-02 -6.345410110E-03 7.036389939E+04 9.384536291E+01 8.772846447E+00
 -3.559232766E-02 -7.344196773E-03 7.048214235E+04 9.242144100E+01 9.103197035E+00
 -3.584832729E-02 -5.713676962E-03 7.046051648E+04 9.264050416E+01 9.461020533E+00
 -3.060659909E-02 -6.356122239E-03 7.059346877E+04 9.101320751E+01 9.839458062E+00
 -3.082754985E-02 -4.945742845E-03 7.057035500E+04 9.124491595E+01 1.024364986E+01
 -2.610093183E-02 -5.463923518E-03 7.072135222E+04 8.936765042E+01 1.067208161E+01
 -2.629020474E-02 -4.252479087E-03 7.069654073E+04 8.961377550E+01 1.112718810E+01
 -2.203504300E-02 -4.659516722E-03 7.086973769E+04 8.741106908E+01 1.160677913E+01
 -2.219572654E-02 -3.627583179E-03 7.084296726E+04 8.767328376E+01 1.212008690E+01
 -1.837179299E-02 -3.935438123E-03 7.104305607E+04 8.507217584E+01 1.266852603E+01
 -1.850671525E-02 -3.065233569E-03 7.101404790E+04 8.535344586E+01 1.324775106E+01
 -1.507695118E-02 -3.284801425E-03 7.124577759E+04 8.221786431E+01 1.389534574E+01
 -1.518870025E-02 -2.560057318E-03 7.121409529E+04 8.251929702E+01 1.455253552E+01
 -1.211897865E-02 -2.701257610E-03 7.148673539E+04 7.873227877E+01 1.532886734E+01
 -1.220992151E-02 -2.107099537E-03 7.145208453E+04 7.906037077E+01 1.607313163E+01
 -9.468826503E-03 -2.178957176E-03 7.177015304E+04 7.422734258E+01 1.707901321E+01
 -9.541126459E-03 -1.701794544E-03 7.173145104E+04 7.457658569E+01 1.793457132E+01
 -7.099748837E-03 -1.712514544E-03 7.211860728E+04 6.861621299E+01 1.916699182E+01
 -7.155381663E-03 -1.339938561E-03 7.207614879E+04 6.900012393E+01 2.016559157E+01
 -4.987129261E-03 -1.296974458E-03 7.250543512E+04 6.031826451E+01 2.207003194E+01
 -5.027898071E-03 -1.017663820E-03 7.245482737E+04 6.072587808E+01 2.326000337E+01
 -3.108319922E-03 -9.277797798E-04 7.298044933E+04 5.028283038E+01 2.593597299E+01
 -3.135868942E-03 -7.314135065E-04 7.292349467E+04 5.075329571E+01 2.732335903E+01
 -1.442492116E-03 -6.007397707E-04 7.329104034E+04 3.491486519E+01 3.432719449E+01
 -1.458319402E-03 -4.779166296E-04 7.322082899E+04 3.554289735E+01 3.592625038E+01
 2.950318352E-05 -3.119902977E-04 7.331658679E+04 2.429488859E+01 4.064465743E+01
 2.403397564E-05 -2.541545121E-04 7.323250594E+04 2.501057675E+01 4.237396820E+01
 -4.904860300E+00 -3.743658139E-01 6.969783915E+04 1.017505042E+02 1.387427315E-02
 -4.531151991E+00 -3.337643916E-01 6.969791347E+04 1.017492964E+02 2.172237111E-02
 -4.185009114E+00 -2.961488127E-01 6.969804600E+04 1.017469740E+02 3.982220773E-02
 -3.864452153E+00 -2.613048468E-01 6.969814834E+04 1.017447674E+02 6.137970095E-02
 -3.567640957E+00 -2.290333384E-01 6.969826349E+04 1.017425019E+02 8.480005601E-02
 -3.290932980E+00 -2.096372707E-01 6.969845363E+04 1.017397464E+02 1.098215411E-01
 -3.034432235E+00 -1.936140335E-01 6.969870823E+04 1.017364391E+02 1.364716194E-01
 -2.797061556E+00 -1.787775747E-01 6.969899335E+04 1.017328420E+02 1.648498022E-01
 -2.577436311E+00 -1.650421475E-01 6.969931453E+04 1.017288783E+02 1.950928369E-01
 -2.374269930E+00 -1.523280716E-01 6.969968100E+04 1.017244535E+02 2.273745305E-01
 -2.186367076E+00 -1.405613099E-01 6.970009615E+04 1.017195187E+02 2.618863059E-01
 -2.012617285E+00 -1.296730752E-01 6.970056556E+04 1.017140043E+02 2.988357460E-01
 -1.851989036E+00 -1.195994644E-01 6.970109684E+04 1.017078230E+02 3.384502516E-01
 -1.703524242E+00 -1.102811181E-01 6.970169813E+04 1.017008807E+02 3.809770647E-01
 -1.566333110E+00 -1.016629043E-01 6.970237855E+04 1.016930708E+02 4.266837071E-01
 -1.439589360E+00 -9.369362391E-02 6.970314872E+04 1.016842704E+02 4.758590526E-01
 -1.322525776E+00 -8.632573733E-02 6.970402081E+04 1.016743390E+02 5.288142934E-01
 -1.214430059E+00 -7.951510942E-02 6.970500874E+04 1.016631153E+02 5.858839849E-01
 -1.114640975E+00 -7.322077280E-02 6.970612855E+04 1.016504140E+02 6.474272206E-01
 -1.022544759E+00 -6.740470747E-02 6.970739870E+04 1.016360219E+02 7.138288526E-01
 -9.375717781E-01 -6.203163568E-02 6.970884040E+04 1.016196935E+02 7.855007564E-01
 -8.591934195E-01 -5.706883109E-02 6.971047813E+04 1.016011460E+02 8.628831084E-01
 -7.869191975E-01 -5.248594107E-02 6.971234002E+04 1.015800534E+02 9.464456889E-01
 -7.202940602E-01 -4.825482123E-02 6.971445853E+04 1.015560398E+02 1.036689151E+00
 -6.588958840E-01 -4.434938115E-02 6.971687101E+04 1.015286721E+02 1.134146419E+00
 -6.023331420E-01 -4.074544066E-02 6.971962050E+04 1.014974506E+02 1.239384086E+00
 -5.502427354E-01 -3.742059570E-02 6.972275653E+04 1.014617993E+02 1.353003604E+00
 -5.022879751E-01 -3.435409310E-02 6.972633611E+04 1.014210547E+02 1.475642564E+00
 -4.581567050E-01 -3.152671356E-02 6.973042481E+04 1.013744520E+02 1.607976718E+00
 -4.175595559E-01 -2.892066220E-02 6.973509811E+04 1.013211099E+02 1.750720257E+00
 -3.802283215E-01 -2.651946617E-02 6.974044282E+04 1.012600155E+02 1.904630369E+00
 -3.459144483E-01 -2.430787862E-02 6.974655824E+04 1.011899939E+02 2.070508610E+00
 -3.143876304E-01 -2.227178881E-02 6.975355822E+04 1.011096960E+02 2.249191332E+00
 -2.854345040E-01 -2.039813775E-02 6.976157434E+04 1.010175906E+02 2.441567685E+00
 -2.588574328E-01 -1.867483910E-02 6.977075794E+04 1.009118950E+02 2.648610055E+00
 -2.344733783E-01 -1.709070509E-02 6.978128116E+04 1.007905528E+02 2.871328274E+00
 -2.121128507E-01 -1.563537712E-02 6.979334087E+04 1.006512137E+02 3.110775005E+00
 -1.916189329E-01 -1.429926096E-02 6.980716354E+04 1.004911617E+02 3.368099590E+00
 -1.728463732E-01 -1.307346637E-02 6.982300881E+04 1.003072656E+02 3.644537124E+00
 -1.556607424E-01 -1.194975093E-02 6.984117394E+04 1.000959159E+02 3.941413073E+00
 -1.399376510E-01 -1.092046820E-02 6.986199981E+04 9.985293938E+01 4.260167776E+00
 -1.255620204E-01 -9.978519885E-03 6.988587776E+04 9.957350409E+01 4.602370862E+00
 -1.124274073E-01 -9.117312038E-03 6.991325736E+04 9.925200253E+01 4.969748902E+00
 -1.004353756E-01 -8.330715176E-03 6.994465666E+04 9.888188857E+01 5.364215856E+00
 -8.949491244E-02 -7.613028118E-03 6.998067549E+04 9.845549591E+01 5.787900900E+00
 -7.952188676E-02 -6.958945378E-03 7.002200860E+04 9.796378629E+01 6.243185902E+00
 -7.043854608E-02 -6.363527885E-03 7.006946617E+04 9.739609535E+01 6.732739130E+00
 -6.217304933E-02 -5.822176841E-03 7.012399489E+04 9.673954637E+01 7.259587566E+00
 -5.465903322E-02 -5.330610284E-03 7.018671887E+04 9.597887458E+01 7.827186930E+00
 -4.783520961E-02 -4.884841989E-03 7.025892360E+04 9.509491629E+01 8.439462530E+00
 -4.164499190E-02 -4.481162649E-03 7.034206553E+04 9.406819668E+01 9.102142706E+00
 -3.604166835E-02 -4.075828167E-03 7.043718288E+04 9.287650162E+01 9.834832544E+00
 -3.099461035E-02 -3.529052699E-03 7.054537048E+04 9.149513197E+01 1.066522354E+01
 -2.643351182E-02 -3.035646594E-03 7.066968838E+04 8.987986643E+01 1.160255643E+01
 -2.231759560E-02 -2.591096184E-03 7.081395398E+04 8.795678457E+01 1.265858389E+01
 -1.860926647E-02 -2.191229089E-03 7.098255976E+04 8.565764754E+01 1.385921880E+01
 -1.527387397E-02 -1.832192208E-03 7.117955904E+04 8.284589888E+01 1.525180598E+01
 -1.227949234E-02 -1.510430814E-03 7.141413316E+04 7.941680427E+01 1.687369807E+01
 -9.596716402E-03 -1.222668657E-03 7.168868496E+04 7.496163527E+01 1.886073129E+01
 -7.198472150E-03 -9.658889842E-04 7.202869555E+04 6.942309073E+01 2.124571663E+01
 -5.059841146E-03 -7.373163734E-04 7.239838267E+04 6.120554509E+01 2.453508556E+01
 -3.157897565E-03 -5.343988553E-04 7.285929410E+04 5.127531553E+01 2.880556866E+01
 -1.471556977E-03 -3.547893801E-04 7.314172752E+04 3.620889546E+01 3.764122146E+01
 1.856476775E-05 -1.963187265E-04 7.313881692E+04 2.580636157E+01 4.422911576E+01
 -4.916318661E+00 -1.667794339E-01 6.969689678E+04 1.017542274E+02 1.440208885E-02
 -4.541399429E+00 -1.443596810E-01 6.969693846E+04 1.017535465E+02 2.227175596E-02
 -4.194134989E+00 -1.235847436E-01 6.969701246E+04 1.017522607E+02 4.041725034E-02
 -3.872539400E+00 -1.043366620E-01 6.969706838E+04 1.017510473E+02 6.202971652E-02
 -3.574766546E+00 -8.650579168E-02 6.969713656E+04 1.017497611E+02 8.552080225E-02
 -3.297460276E+00 -7.856134143E-02 6.969726526E+04 1.017480564E+02 1.106470082E-01
 -3.040455202E+00 -7.273795677E-02 6.969744727E+04 1.017458723E+02 1.374367896E-01
 -2.802617820E+00 -6.734061214E-02 6.969765469E+04 1.017434276E+02 1.659709123E-01
 -2.582560773E+00 -6.233862258E-02 6.969789181E+04 1.017406611E+02 1.963853647E-01
 -2.378994961E+00 -5.770347007E-02 6.969816663E+04 1.017374926E+02 2.288590803E-01
 -2.190722695E+00 -5.340865215E-02 6.969848227E+04 1.017338795E+02 2.635871895E-01
 -2.016631325E+00 -4.942954145E-02 6.969884362E+04 1.017297617E+02 3.007806740E-01
 -1.855687303E+00 -4.574325541E-02 6.969925751E+04 1.017250615E+02 3.406712003E-01
 -1.706930655E+00 -4.232853537E-02 6.969973137E+04 1.017196937E+02 3.835109111E-01
 -1.569469839E+00 -3.916563431E-02 6.970027361E+04 1.017135609E+02 4.295727243E-01
 -1.442476949E+00 -3.623621262E-02 6.970089408E+04 1.017065494E+02 4.791516936E-01
 -1.325183262E+00 -3.352324137E-02 6.970160418E+04 1.016985278E+02 5.325661644E-01
 -1.216875077E+00 -3.101091238E-02 6.970241706E+04 1.016893443E+02 5.901589171E-01
 -1.116889860E+00 -2.868455473E-02 6.970334796E+04 1.016788232E+02 6.522984902E-01
 -1.024612639E+00 -2.653055710E-02 6.970441450E+04 1.016667607E+02 7.193805747E-01
 -9.394726620E-01 -2.453629556E-02 6.970563708E+04 1.016529209E+02 7.918294503E-01
 -8.609402762E-01 -2.269006631E-02 6.970703930E+04 1.016370309E+02 8.700994713E-01
 -7.885240320E-01 -2.098102309E-02 6.970864848E+04 1.016187743E+02 9.546766060E-01
 -7.217679830E-01 -1.939911867E-02 6.971049618E+04 1.015977849E+02 1.046080008E+00
 -6.602491758E-01 -1.793505030E-02 6.971261891E+04 1.015736392E+02 1.144863618E+00
 -6.035753141E-01 -1.658020862E-02 6.971505884E+04 1.015458468E+02 1.251617752E+00
 -5.513825851E-01 -1.532662972E-02 6.971786464E+04 1.015138412E+02 1.366970805E+00
 -5.033336380E-01 -1.416695014E-02 6.972109248E+04 1.014769677E+02 1.491591210E+00
 -4.591157031E-01 -1.309436446E-02 6.972480711E+04 1.014344702E+02 1.626188556E+00
 -4.184388421E-01 -1.210258529E-02 6.972908313E+04 1.013854758E+02 1.771516556E+00
 -3.810343214E-01 -1.118580538E-02 6.973400644E+04 1.013289779E+02 1.928375827E+00
 -3.466530983E-01 -1.033866167E-02 6.973967578E+04 1.012638196E+02 2.097614932E+00
 -3.150644140E-01 -9.556201245E-03 6.974620434E+04 1.011886547E+02 2.280136202E+00
 -2.860544847E-01 -8.833848924E-03 6.975372187E+04 1.011019390E+02 2.476885401E+00
 -2.594252846E-01 -8.167376480E-03 6.976237833E+04 1.010019211E+02 2.688872178E+00
 -2.349934149E-01 -7.552873478E-03 6.977234596E+04 1.008865588E+02 2.917209924E+00
 -2.125890516E-01 -6.986719707E-03 6.978382057E+04 1.007534955E+02 3.163058939E+00
 -1.920549680E-01 -6.465559210E-03 6.979702617E+04 1.006000352E+02 3.427637977E+00
 -1.732456258E-01 -5.986276019E-03 6.981222037E+04 1.004230610E+02 3.712289121E+00
 -1.560263307E-01 -5.545971640E-03 6.982969844E+04 1.002189776E+02 4.018464997E+00
 -1.402724473E-01 -5.141944363E-03 6.984979839E+04 9.998363385E+01 4.347741235E+00
 -1.258686698E-01 -4.771670472E-03 6.987290799E+04 9.971222352E+01 4.701841826E+00
 -1.127083448E-01 -4.432787399E-03 6.989947249E+04 9.939917096E+01 5.082670876E+00
 -1.006928415E-01 -4.123078846E-03 6.993000466E+04 9.903797192E+01 5.492345033E+00
 -8.973096755E-02 -3.840461863E-03 6.996509766E+04 9.862101138E+01 5.933228228E+00
 -7.973842592E-02 -3.582975799E-03 7.000543830E+04 9.813930766E+01 6.407982616E+00
 -7.063731085E-02 -3.348773047E-03 7.005182764E+04 9.758226069E+01 6.919633242E+00
 -6.235563979E-02 -3.136111431E-03 7.010520038E+04 9.693707421E+01 7.471641846E+00
 -5.482691893E-02 -2.943347981E-03 7.016666626E+04 9.618859414E+01 8.067961064E+00
 -4.798973976E-02 -2.768933849E-03 7.023749386E+04 9.531774343E+01 8.713155470E+00
 -4.178740471E-02 -2.611410280E-03 7.031912537E+04 9.430510892E+01 9.413438784E+00
 -3.617174808E-02 -2.433214366E-03 7.041258173E+04 9.312886344E+01 1.018811939E+01
 -3.110726221E-02 -2.108257088E-03 7.051894171E+04 9.176408335E+01 1.106453935E+01
 -2.653041098E-02 -1.815307078E-03 7.064125036E+04 9.016684454E+01 1.205294475E+01
 -2.240027688E-02 -1.551644155E-03 7.078321482E+04 8.826341151E+01 1.316789273E+01
 -1.867913534E-02 -1.314749428E-03 7.094921273E+04 8.598732168E+01 1.443633771E+01
 -1.533221677E-02 -1.102293670E-03 7.114300131E+04 8.320051283E+01 1.591074673E+01
 -1.232748564E-02 -9.121260804E-04 7.137401016E+04 7.980368870E+01 1.762969300E+01
 -9.635435645E-03 -7.422633671E-04 7.164346357E+04 7.538364194E+01 1.974016288E+01
 -7.228899690E-03 -5.908791082E-04 7.197821601E+04 6.988811264E+01 2.228433038E+01
 -5.082873615E-03 -4.562933160E-04 7.233852677E+04 6.174557733E+01 2.577461691E+01
 -3.174352705E-03 -3.369617630E-04 7.279137011E+04 5.184970770E+01 3.025020688E+01
 -1.482179938E-03 -2.314640156E-04 7.305779326E+04 3.692847343E+01 3.933859912E+01
 1.309555987E-05 -1.384829409E-04 7.303943810E+04 2.668356422E+01 4.608814217E+01
 -4.919121367E+00 4.110405248E-02 6.969595146E+04 1.017579773E+02 1.472692740E-02
 -4.543654778E+00 4.531903214E-02 6.969596049E+04 1.017578209E+02 2.262405198E-02
 -4.195883387E+00 4.923198854E-02 6.969597562E+04 1.017575686E+02 4.082690263E-02
 -3.873818348E+00 5.286444812E-02 6.969598495E+04 1.017573464E+02 6.249811393E-02
 -3.575610846E+00 5.623643631E-02 6.969600648E+04 1.017570388E+02 8.604706686E-02
 -3.298194051E+00 5.271168327E-02 6.969607354E+04 1.017563920E+02 1.112474657E-01
 -3.041136219E+00 4.831966712E-02 6.969618216E+04 1.017553446E+02 1.381379340E-01
 -2.803250026E+00 4.426351312E-02 6.969631106E+04 1.017540656E+02 1.667912595E-01
 -2.583147827E+00 4.051875986E-02 6.969646342E+04 1.017525089E+02 1.973429427E-01
 -2.379540256E+00 3.706268449E-02 6.969664575E+04 1.017506100E+02 2.299751576E-01
 -2.191229376E+00 3.387418202E-02 6.969686091E+04 1.017483329E+02 2.648857240E-01
 -2.017102309E+00 3.093365238E-02 6.969711315E+04 1.017456261E+02 3.022883039E-01
 -1.856125292E+00 2.822289489E-02 6.969740846E+04 1.017424225E+02 3.424182319E-01
 -1.707338155E+00 2.572500941E-02 6.969775352E+04 1.017386462E+02 3.855322454E-01
 -1.569849171E+00 2.342430416E-02 6.969815601E+04 1.017342090E+02 4.319086088E-01
 -1.442830265E+00 2.130620943E-02 6.969862498E+04 1.017290069E+02 4.818486031E-01
 -1.325512554E+00 1.935719712E-02 6.969917103E+04 1.017229182E+02 5.356778182E-01
 -1.217182193E+00 1.756470559E-02 6.969980649E+04 1.017158011E+02 5.937473904E-01
 -1.117176509E+00 1.591706957E-02 6.970054575E+04 1.017074895E+02 6.564354626E-01
 -1.024880407E+00 1.440345482E-02 6.970140557E+04 1.016977901E+02 7.241487575E-01
 -9.397230143E-01 1.301379731E-02 6.970240545E+04 1.016864772E+02 7.973242091E-01
 -8.611745721E-01 1.173874656E-02 6.970356810E+04 1.016732881E+02 8.764306659E-01
 -7.887435293E-01 1.056961308E-02 6.970491989E+04 1.016579169E+02 9.619706579E-01
 -7.219738463E-01 9.498319561E-03 6.970649148E+04 1.016400080E+02 1.054482215E+00
 -6.604424831E-01 8.517355694E-03 6.970831840E+04 1.016191479E+02 1.154540753E+00
 -6.037570631E-01 7.619736419E-03 6.971044189E+04 1.015948570E+02 1.262761037E+00
 -5.515536991E-01 6.798963473E-03 6.971290967E+04 1.015665789E+02 1.379799218E+00
 -5.034949713E-01 6.048990062E-03 6.971577695E+04 1.015336687E+02 1.506354847E+00
 -4.592680458E-01 5.364188526E-03 6.971910752E+04 1.014953802E+02 1.643173233E+00
 -4.185829250E-01 4.739320852E-03 6.972297503E+04 1.014508502E+02 1.791047901E+00
 -3.811708201E-01 4.169511902E-03 6.972746436E+04 1.013990816E+02 1.950823623E+00
 -3.467826371E-01 3.650225181E-03 6.973267323E+04 1.013389237E+02 2.123399760E+00
 -3.151875696E-01 3.177241013E-03 6.973871407E+04 1.012690532E+02 2.309732823E+00
 -2.861717896E-01 2.746636923E-03 6.974571578E+04 1.011879287E+02 2.510844705E+00
 -2.595372302E-01 2.354770030E-03 6.975382605E+04 1.010937827E+02 2.727810973E+00
 -2.351004542E-01 1.998261250E-03 6.976321543E+04 1.009846127E+02 2.961786446E+00
 -2.126916023E-01 1.673981047E-03 6.977407957E+04 1.008580808E+02 3.214051912E+00
 -1.921534145E-01 1.379036511E-03 6.978664083E+04 1.007114869E+02 3.485949101E+00
 -1.733403219E-01 1.110759478E-03 6.980115363E+04 1.005417392E+02 3.778900426E+00
 -1.561176015E-01 8.666954461E-04 6.981791045E+04 1.003452620E+02 4.094484308E+00
 -1.403605913E-01 6.445930334E-04 6.983724635E+04 1.001179275E+02 4.434424497E+00
 -1.259539611E-01 4.423937446E-04 6.985954492E+04 9.985496010E+01 4.800605007E+00
 -1.127910344E-01 2.582218509E-04 6.988524639E+04 9.955082193E+01 5.195113670E+00
 -1.007731597E-01 9.037421581E-05 6.991485731E+04 9.919905849E+01 5.620281842E+00
 -8.980912505E-02 -6.269004116E-05 6.994896304E+04 9.879211676E+01 6.078724292E+00
 -7.981461551E-02 -2.023600975E-04 6.998824076E+04 9.832108754E+01 6.573403293E+00
 -7.071170893E-02 -3.298842369E-04 7.003348010E+04 9.777546120E+01 7.107690321E+00
 -6.242840772E-02 -4.463808379E-04 7.008560103E+04 9.714255665E+01 7.685464834E+00
 -5.489820432E-02 -5.528494232E-04 7.014569523E+04 9.640736236E+01 8.311207724E+00
 -4.805967766E-02 -6.501816143E-04 7.021500962E+04 9.555097884E+01 8.990150528E+00
 -4.185611872E-02 -7.391719733E-04 7.029496980E+04 9.455393111E+01 9.729121271E+00
 -3.623799781E-02 -7.884503386E-04 7.038660953E+04 9.339447327E+01 1.054715184E+01
 -3.116501642E-02 -6.856049705E-04 7.049099736E+04 9.204742609E+01 1.147076174E+01
 -2.658048514E-02 -5.933788488E-04 7.061113895E+04 9.046954402E+01 1.251105997E+01
 -2.244341820E-02 -5.108469948E-04 7.075059762E+04 8.858752844E+01 1.368563198E+01
 -1.871602818E-02 -4.371456080E-04 7.091375621E+04 8.633658078E+01 1.502234542E+01
 -1.536348757E-02 -3.714708642E-04 7.110405954E+04 8.357723892E+01 1.657760901E+01
 -1.235370751E-02 -3.130773486E-04 7.133122126E+04 8.021503207E+01 1.839116895E+01
 -9.657132596E-03 -2.612761259E-04 7.159524487E+04 7.583529409E+01 2.061959854E+01
 -7.246550499E-03 -2.154324459E-04 7.192425779E+04 7.038910309E+01 2.331579946E+01
 -5.096915412E-03 -1.749630388E-04 7.227507512E+04 6.233489701E+01 2.699658507E+01
 -3.185184282E-03 -1.393326645E-04 7.271971980E+04 5.247509418E+01 3.166678052E+01
 -1.490164791E-03 -1.080486388E-04 7.296938036E+04 3.770821215E+01 4.101967624E+01
 7.626351982E-06 -8.064715534E-05 7.293510825E+04 2.763963512E+01 4.794572465E+01
 -4.913313371E+00 2.489252871E-01 6.969500359E+04 1.017617404E+02 1.478777261E-02
 -4.537959537E+00 2.349399803E-01 6.969497969E+04 1.017621127E+02 2.269933797E-02
 -4.190292613E+00 2.219951196E-01 6.969493530E+04 1.017629028E+02 4.094258941E-02
 -3.868324345E+00 2.100158415E-01 6.969489752E+04 1.017636785E+02 6.267683950E-02
 -3.570206466E+00 1.989325801E-01 6.969487213E+04 1.017643537E+02 8.630472187E-02
 -3.293164430E+00 1.839412857E-01 6.969487720E+04 1.017647706E+02 1.115964793E-01
 -3.036503065E+00 1.693370653E-01 6.969491183E+04 1.017648679E+02 1.385898775E-01
 -2.798983779E+00 1.558303752E-01 6.969496156E+04 1.017647633E+02 1.673546177E-01
 -2.579221067E+00 1.433416241E-01 6.969502849E+04 1.017644253E+02 1.980290515E-01
 -2.375927549E+00 1.317968637E-01 6.969511754E+04 1.017638061E+02 2.307993105E-01
 -2.187907135E+00 1.211273961E-01 6.969523129E+04 1.017628760E+02 2.658668475E-01
 -2.014048661E+00 1.112694073E-01 6.969537336E+04 1.017615927E+02 3.034493111E-01
 -1.853319959E+00 1.021636262E-01 6.969554886E+04 1.017598995E+02 3.437864938E-01
 -1.704762339E+00 9.375500580E-02 6.969576370E+04 1.017577300E+02 3.871400881E-01
 -1.567485448E+00 8.599242663E-02 6.969602479E+04 1.017550059E+02 4.337939291E-01
 -1.440662488E+00 7.882842018E-02 6.969634038E+04 1.017516331E+02 4.840556334E-01
 -1.323525763E+00 7.221891112E-02 6.969672022E+04 1.017475000E+02 5.382580560E-01
 -1.215362526E+00 6.612297715E-02 6.969717577E+04 1.017424749E+02 5.967606789E-01
 -1.115511130E+00 6.050262539E-02 6.969772054E+04 1.017364025E+02 6.599512295E-01
 -1.023357424E+00 5.532258406E-02 6.969837037E+04 1.017290998E+02 7.282474320E-01
 -9.383314199E-01 5.055010858E-02 6.969914382E+04 1.017203522E+02 8.020988330E-01
 -8.599041743E-01 4.615480115E-02 6.970006262E+04 1.017099078E+02 8.819887152E-01
 -7.875848948E-01 4.210844293E-02 6.970115218E+04 1.016974721E+02 9.684360984E-01
 -7.209182454E-01 3.838483801E-02 6.970244212E+04 1.016827005E+02 1.061997823E+00
 -6.594818390E-01 3.495966847E-02 6.970396697E+04 1.016651910E+02 1.163270717E+00
 -6.028839042E-01 3.181035978E-02 6.970576691E+04 1.016444750E+02 1.272893840E+00
 -5.507611157E-01 2.891595603E-02 6.970788863E+04 1.016200073E+02 1.391550813E+00
 -5.027765740E-01 2.625700423E-02 6.971038628E+04 1.015911542E+02 1.519972317E+00
 -4.586179281E-01 2.381544729E-02 6.971332259E+04 1.015571804E+02 1.658938706E+00
 -4.179956278E-01 2.157452500E-02 6.971677012E+04 1.015172336E+02 1.809282922E+00
 -3.806412989E-01 1.951868261E-02 6.972081264E+04 1.014703274E+02 1.971894082E+00
 -3.463062317E-01 1.763348651E-02 6.972554674E+04 1.014153219E+02 2.147720467E+00
 -3.147599756E-01 1.590554648E-02 6.973108361E+04 1.013509005E+02 2.337774537E+00
 -2.857890321E-01 1.432244414E-02 6.973755121E+04 1.012755486E+02 2.543136781E+00
 -2.591956396E-01 1.287266694E-02 6.974509610E+04 1.011875003E+02 2.764965961E+00