TITLE     = "fluent22.1.0  build-id: 10213"
VARIABLES = "X"
"Y"
"Pressure"
"X Velocity"
"Y Velocity"
DATASETAUXDATA Common.DensityVar="23"
DATASETAUXDATA Common.PressureVar="3"
DATASETAUXDATA Common.TemperatureVar="12"
DATASETAUXDATA Common.TurbulentDynamicViscosityVar="17"
DATASETAUXDATA Common.UVar="5"
DATASETAUXDATA Common.VectorVarsAreVelocity="TRUE"
DATASETAUXDATA Common.ViscosityVar="25"
DATASETAUXDATA Common.VVar="7"
ZONE T="fluid"
 STRANDID=1, SOLUTIONTIME=1.025
 Nodes=10240, Elements=10080, ZONETYPE=FEQuadrilateral
 DATAPACKING=POINT
 DT=(DOUBLE DOUBLE DOUBLE DOUBLE DOUBLE )
 -4.856290020E+00 -7.872354469E-01 6.969987179E+04 1.017426176E+02 1.245971260E-02
 -4.486972090E+00 -7.104576335E-01 6.970001810E+04 1.017402772E+02 2.048886112E-02
 -4.884823481E+00 -5.813004056E-01 6.969891388E+04 1.017463265E+02 1.347219691E-02
 -4.512985579E+00 -5.225769910E-01 6.969902424E+04 1.017445410E+02 2.154020758E-02
 -4.144895576E+00 -6.393334048E-01 6.970027689E+04 1.017357468E+02 3.906171119E-02
 -4.168575021E+00 -4.681756064E-01 6.969922034E+04 1.017410863E+02 4.017424094E-02
 -3.828104245E+00 -5.734570784E-01 6.970047835E+04 1.017314208E+02 6.123966274E-02
 -3.849622215E+00 -4.177861200E-01 6.969937239E+04 1.017377883E+02 6.239779307E-02
 -3.534779581E+00 -5.124514133E-01 6.970069614E+04 1.017270329E+02 8.531254548E-02
 -3.554296233E+00 -3.711201932E-01 6.969953897E+04 1.017344330E+02 8.653624793E-02
 -3.260714735E+00 -4.702900139E-01 6.970101871E+04 1.017220076E+02 1.109272549E-01
 -3.278671004E+00 -3.403156447E-01 6.969979759E+04 1.017305036E+02 1.122739484E-01
 -3.006561969E+00 -4.339921972E-01 6.970142798E+04 1.017162877E+02 1.381105674E-01
 -3.023123071E+00 -3.141314025E-01 6.970013354E+04 1.017259401E+02 1.396335901E-01
 -2.771364053E+00 -4.003929319E-01 6.970187934E+04 1.017102086E+02 1.670261536E-01
 -2.786634059E+00 -2.898914176E-01 6.970050594E+04 1.017210536E+02 1.687502387E-01
 -2.553749042E+00 -3.692970581E-01 6.970238071E+04 1.017036658E+02 1.978212345E-01
 -2.567824486E+00 -2.674551246E-01 6.970092164E+04 1.017157507E+02 1.997690654E-01
 -2.352442153E+00 -3.405232308E-01 6.970294311E+04 1.016965427E+02 2.306651094E-01
 -2.365412572E+00 -2.466919064E-01 6.970139109E+04 1.017099221E+02 2.328639694E-01
 -2.166259002E+00 -3.139029555E-01 6.970357083E+04 1.016887745E+02 2.657495152E-01
 -2.178207425E+00 -2.274804003E-01 6.970191803E+04 1.017035109E+02 2.682298762E-01
 -1.994099294E+00 -2.892796930E-01 6.970427108E+04 1.016802698E+02 3.032830365E-01
 -2.005102713E+00 -2.097078528E-01 6.970250881E+04 1.016964358E+02 3.060786228E-01
 -1.834940960E+00 -2.665080255E-01 6.970505300E+04 1.016709215E+02 3.434924296E-01
 -1.845070753E+00 -1.932695197E-01 6.970317193E+04 1.016885984E+02 3.466407374E-01
 -1.687834688E+00 -2.454528811E-01 6.970592616E+04 1.016606159E+02 3.866231912E-01
 -1.697157022E+00 -1.780681073E-01 6.970391627E+04 1.016798939E+02 3.901662843E-01
 -1.551898836E+00 -2.259888108E-01 6.970690120E+04 1.016492267E+02 4.329405318E-01
 -1.560475035E+00 -1.640132526E-01 6.970475179E+04 1.016702050E+02 4.369256396E-01
 -1.426314692E+00 -2.079993175E-01 6.970799026E+04 1.016366108E+02 4.827299000E-01
 -1.434201586E+00 -1.510210403E-01 6.970568991E+04 1.016593981E+02 4.872103307E-01
 -1.310322066E+00 -1.913762298E-01 6.970920707E+04 1.016226078E+02 5.362977613E-01
 -1.317572314E+00 -1.390135524E-01 6.970674364E+04 1.016473219E+02 5.413339114E-01
 -1.203215184E+00 -1.760191208E-01 6.971056714E+04 1.016070364E+02 5.939725379E-01
 -1.209877568E+00 -1.279184500E-01 6.970792776E+04 1.016338043E+02 5.996329764E-01
 -1.104338868E+00 -1.618347662E-01 6.971208811E+04 1.015896912E+02 6.561055421E-01
 -1.110458573E+00 -1.176685835E-01 6.970925919E+04 1.016186490E+02 6.624682362E-01
 -1.013084972E+00 -1.487366404E-01 6.971379004E+04 1.015703391E+02 7.230719233E-01
 -1.018703847E+00 -1.082016305E-01 6.971075724E+04 1.016016318E+02 7.302255980E-01
 -9.288890821E-01 -1.366444479E-01 6.971569580E+04 1.015487147E+02 7.952716568E-01
 -9.340458754E-01 -9.945975839E-02 6.971244405E+04 1.015824961E+02 8.033172833E-01
 -8.512274250E-01 -1.254836865E-01 6.971783145E+04 1.015245153E+02 8.731304019E-01
 -8.559580110E-01 -9.138931064E-02 6.971434495E+04 1.015609480E+02 8.821829428E-01
 -7.796140070E-01 -1.151852413E-01 6.972022680E+04 1.014973953E+02 9.571004324E-01
 -7.839515924E-01 -8.394051445E-02 6.971648898E+04 1.015366503E+02 9.672908684E-01
 -7.135979436E-01 -1.056850067E-01 6.972291586E+04 1.014669598E+02 1.047661412E+00
 -7.175732601E-01 -7.706720889E-02 6.971890945E+04 1.015092161E+02 1.059139070E+00
 -6.527609772E-01 -9.692353404E-02 6.972593756E+04 1.014327568E+02 1.145321475E+00
 -6.564024606E-01 -7.072659154E-02 6.972164459E+04 1.014782012E+02 1.158256354E+00
 -5.967151667E-01 -8.884570407E-02 6.972933642E+04 1.013942683E+02 1.250617981E+00
 -6.000491235E-01 -6.487898250E-02 6.972473824E+04 1.014430952E+02 1.265203083E+00
 -5.451007389E-01 -8.140042143E-02 6.973316345E+04 1.013509010E+02 1.364117967E+00
 -5.481515007E-01 -5.948760447E-02 6.972824073E+04 1.014033117E+02 1.380572969E+00
 -4.975840889E-01 -7.454033008E-02 6.973747702E+04 1.013019763E+02 1.486418215E+00
 -5.003741562E-01 -5.451837769E-02 6.973220980E+04 1.013581769E+02 1.504994167E+00
 -4.538559205E-01 -6.822154810E-02 6.974234394E+04 1.012467112E+02 1.618149701E+00
 -4.564060957E-01 -4.993972859E-02 6.973671174E+04 1.013069164E+02 1.639128213E+00
 -4.136295158E-01 -6.240342026E-02 6.974784086E+04 1.011842081E+02 1.759971847E+00
 -4.159590273E-01 -4.572241126E-02 6.974182272E+04 1.012486412E+02 1.783675107E+00
 -3.766391266E-01 -5.704828729E-02 6.975405526E+04 1.011134377E+02 1.912572906E+00
 -3.787657436E-01 -4.183934064E-02 6.974762977E+04 1.011823218E+02 1.939373227E+00
 -3.426384776E-01 -5.212127042E-02 6.976108782E+04 1.010332269E+02 2.076680830E+00
 -3.445786170E-01 -3.826543668E-02 6.975423256E+04 1.011067772E+02 2.106993734E+00
 -3.113993747E-01 -4.759007035E-02 6.976905455E+04 1.009422178E+02 2.253071063E+00
 -3.131682000E-01 -3.497747864E-02 6.976174633E+04 1.010206678E+02 2.287348200E+00
 -2.827104109E-01 -4.342477945E-02 6.977808748E+04 1.008388461E+02 2.442546695E+00
 -2.843219243E-01 -3.195396885E-02 6.977030329E+04 1.009224378E+02 2.481311377E+00
 -2.563757629E-01 -3.959770642E-02 6.978833737E+04 1.007213269E+02 2.645939473E+00
 -2.578428906E-01 -2.917500538E-02 6.978005396E+04 1.008102911E+02 2.689803837E+00
 -2.322140721E-01 -3.608321262E-02 6.979997770E+04 1.005875989E+02 2.864136358E+00
 -2.335487436E-01 -2.662216290E-02 6.979117075E+04 1.006821753E+02 2.913777465E+00
 -2.100574042E-01 -3.285755931E-02 6.981320762E+04 1.004352883E+02 3.098075690E+00
 -2.112706261E-01 -2.427838155E-02 6.980385171E+04 1.005357226E+02 3.154247503E+00
 -1.897502829E-01 -2.989876531E-02 6.982825506E+04 1.002616641E+02 3.348748255E+00
 -1.908522067E-01 -2.212786310E-02 6.981832400E+04 1.003682049E+02 3.412303836E+00
 -1.711487904E-01 -2.718647446E-02 6.984538125E+04 1.000635787E+02 3.617206262E+00
 -1.721487762E-01 -2.015597443E-02 6.983484779E+04 1.001764792E+02 3.689109259E+00
 -1.541197320E-01 -2.470183241E-02 6.986488592E+04 9.983739770E+01 3.904574416E+00
 -1.550264077E-01 -1.834915769E-02 6.985372128E+04 9.995691882E+01 3.985908758E+00
 -1.385398606E-01 -2.242737245E-02 6.988711316E+04 9.957891805E+01 4.212062935E+00
 -1.393611756E-01 -1.669484712E-02 6.987528667E+04 9.970533050E+01 4.304048901E+00
 -1.242951543E-01 -2.034690978E-02 6.991245826E+04 9.928326878E+01 4.540978251E+00
 -1.250384311E-01 -1.518139224E-02 6.989993695E+04 9.941685566E+01 4.644991547E+00
 -1.112801472E-01 -1.844544401E-02 6.994137609E+04 9.894479141E+01 4.892741899E+00
 -1.119521280E-01 -1.379798709E-02 6.992812408E+04 9.908585199E+01 5.010335095E+00
 -9.939730607E-02 -1.670906945E-02 6.997439136E+04 9.855688050E+01 5.268909402E+00
 -1.000041969E-01 -1.253460532E-02 6.996036922E+04 9.870573248E+01 5.401839077E+00
 -8.855645295E-02 -1.512489276E-02 7.001211193E+04 9.811179832E+01 5.671195353E+00
 -8.910396380E-02 -1.138194095E-02 6.999727579E+04 9.826878325E+01 5.821453447E+00
 -7.867422770E-02 -1.368095760E-02 7.005524356E+04 9.760039760E+01 6.101488868E+00
 -7.916761039E-02 -1.033135432E-02 7.003954293E+04 9.776590661E+01 6.271340679E+00
 -6.967358965E-02 -1.236617554E-02 7.010461121E+04 9.701187386E+01 6.561843196E+00
 -7.011767277E-02 -9.374822911E-03 7.008798727E+04 9.718635589E+01 6.753904920E+00
 -6.148335473E-02 -1.117026348E-02 7.016117511E+04 9.633324008E+01 7.054483939E+00
 -6.188257601E-02 -8.504897005E-03 7.014356372E+04 9.651715329E+01 7.271828839E+00
 -5.403776587E-02 -1.008368632E-02 7.022607443E+04 9.554912086E+01 7.581963919E+00
 -5.439620216E-02 -7.714659258E-03 7.020740546E+04 9.574292780E+01 7.828134400E+00
 -4.727609410E-02 -9.097604036E-03 7.030061422E+04 9.464014612E+01 8.147045968E+00
 -4.759748923E-02 -6.997687820E-03 7.028080732E+04 9.484435776E+01 8.426134678E+00
 -4.114226848E-02 -8.203824018E-03 7.038627445E+04 9.358674731E+01 8.754637081E+00
 -4.143005896E-02 -6.348023070E-03 7.036522873E+04 9.380204041E+01 9.071214159E+00
 -3.559274762E-02 -7.346281244E-03 7.048409849E+04 9.236638942E+01 9.426345970E+00
 -3.584874051E-02 -5.715747440E-03 7.046167284E+04 9.259372819E+01 9.785158471E+00
 -3.060692515E-02 -6.357742958E-03 7.059518840E+04 9.095425562E+01 1.019120356E+01
 -3.082787103E-02 -4.947353920E-03 7.057121220E+04 9.119482442E+01 1.059649339E+01
 -2.610117985E-02 -5.465158330E-03 7.072271249E+04 8.930487447E+01 1.105595041E+01
 -2.629044931E-02 -4.253707511E-03 7.069696954E+04 8.956051083E+01 1.151218237E+01
 -2.203522714E-02 -4.660435184E-03 7.087060572E+04 8.734369660E+01 1.202682946E+01
 -2.219590834E-02 -3.628497616E-03 7.084282404E+04 8.761615788E+01 1.254128731E+01
 -1.837192575E-02 -3.936101666E-03 7.104327874E+04 8.499999936E+01 1.313013476E+01
 -1.850684649E-02 -3.065894739E-03 7.101317170E+04 8.529234416E+01 1.371032345E+01
 -1.507704347E-02 -3.285263666E-03 7.124505802E+04 8.213874880E+01 1.440493037E+01
 -1.518879159E-02 -2.560518285E-03 7.121217810E+04 8.245212495E+01 1.506272803E+01
 -1.211903983E-02 -2.701564773E-03 7.148482801E+04 7.864885445E+01 1.589553317E+01
 -1.220998214E-02 -2.107406113E-03 7.144887756E+04 7.898925748E+01 1.664019919E+01
 -9.468864531E-03 -2.179148603E-03 7.176618638E+04 7.412867095E+01 1.771120511E+01
 -9.541164205E-03 -1.701985771E-03 7.172604661E+04 7.449202854E+01 1.856796678E+01
 -7.099770371E-03 -1.712623246E-03 7.211265416E+04 6.852054716E+01 1.988723150E+01
 -7.155403071E-03 -1.340047249E-03 7.206847264E+04 6.891598725E+01 2.089160104E+01
 -4.987139775E-03 -1.297027695E-03 7.249367189E+04 6.014118782E+01 2.288341777E+01
 -5.027908541E-03 -1.017717103E-03 7.244117633E+04 6.059277142E+01 2.408738450E+01
 -3.108323824E-03 -9.277996064E-04 7.296357713E+04 5.016146366E+01 2.685263371E+01
 -3.135872836E-03 -7.314333739E-04 7.290427667E+04 5.064031606E+01 2.826080409E+01
 -1.442492843E-03 -6.007434780E-04 7.325584878E+04 3.462632206E+01 3.558103116E+01
 -1.458320129E-03 -4.779203501E-04 7.318183956E+04 3.525748996E+01 3.721086674E+01
 2.950318352E-05 -3.119902977E-04 7.326290494E+04 2.368334395E+01 4.217152027E+01
 2.403397564E-05 -2.541545121E-04 7.317406225E+04 2.446938039E+01 4.393936020E+01
 -4.904860300E+00 -3.743658139E-01 6.969794294E+04 1.017501223E+02 1.431858726E-02
 -4.531153808E+00 -3.337737343E-01 6.969801978E+04 1.017488763E+02 2.241756486E-02
 -4.185012537E+00 -2.961664153E-01 6.969815677E+04 1.017464811E+02 4.109623471E-02
 -3.864456986E+00 -2.613297128E-01 6.969826244E+04 1.017442073E+02 6.334382499E-02
 -3.567647022E+00 -2.290645510E-01 6.969838106E+04 1.017418757E+02 8.751458508E-02
 -3.290940121E+00 -2.096740239E-01 6.969857675E+04 1.017390415E+02 1.133379986E-01
 -3.034440304E+00 -1.936555592E-01 6.969883858E+04 1.017356418E+02 1.408419817E-01
 -2.797070415E+00 -1.788231598E-01 6.969913148E+04 1.017319475E+02 1.701287965E-01
 -2.577445832E+00 -1.650911372E-01 6.969946110E+04 1.017278801E+02 2.013392062E-01
 -2.374279997E+00 -1.523798651E-01 6.969983687E+04 1.017233429E+02 2.346522400E-01
 -2.186377583E+00 -1.406153560E-01 6.970026218E+04 1.017182866E+02 2.702651059E-01
 -2.012628132E+00 -1.297288686E-01 6.970074265E+04 1.017126406E+02 3.083916879E-01
 -1.852000135E+00 -1.196565421E-01 6.970128596E+04 1.017063165E+02 3.492663211E-01
 -1.703535510E+00 -1.103390561E-01 6.970190035E+04 1.016992189E+02 3.931438130E-01
 -1.566344472E+00 -1.017213147E-01 6.970259500E+04 1.016912400E+02 4.402998976E-01
 -1.439600747E+00 -9.375215225E-02 6.970338061E+04 1.016822557E+02 4.910323447E-01
 -1.322537125E+00 -8.638406005E-02 6.970426942E+04 1.016721240E+02 5.456619633E-01
 -1.214441313E+00 -7.957293174E-02 6.970527545E+04 1.016606821E+02 6.045336856E-01
 -1.114652082E+00 -7.327782683E-02 6.970641481E+04 1.016477433E+02 6.680177867E-01
 -1.022555672E+00 -6.746075051E-02 6.970770604E+04 1.016330926E+02 7.365111509E-01
 -9.375824549E-01 -6.208644876E-02 6.970917046E+04 1.016164829E+02 8.104385886E-01
 -8.592038215E-01 -5.712221777E-02 6.971083257E+04 1.015976294E+02 8.902541745E-01
 -7.869292907E-01 -5.253772634E-02 6.971272062E+04 1.015762043E+02 9.764426079E-01
 -7.203038145E-01 -4.830485061E-02 6.971486709E+04 1.015518298E+02 1.069520550E+00
 -6.589052730E-01 -4.439752001E-02 6.971730940E+04 1.015240705E+02 1.170038038E+00
 -6.023421432E-01 -4.079157358E-02 6.972009057E+04 1.014924249E+02 1.278579920E+00
 -5.502513297E-01 -3.746462596E-02 6.972326016E+04 1.014563149E+02 1.395767365E+00
 -5.022961470E-01 -3.439594227E-02 6.972687514E+04 1.014150746E+02 1.522258825E+00
 -4.581644426E-01 -3.156632111E-02 6.973100103E+04 1.013679367E+02 1.658752244E+00
 -4.175668505E-01 -2.895798516E-02 6.973571318E+04 1.013140181E+02 1.805986926E+00
 -3.802351678E-01 -2.655447873E-02 6.974109813E+04 1.012523040E+02 1.964744908E+00
 -3.459208441E-01 -2.434057176E-02 6.974725497E+04 1.011816165E+02 2.135853833E+00
 -3.143935769E-01 -2.230216980E-02 6.975429760E+04 1.011006096E+02 2.320182820E+00
 -2.854400053E-01 -2.042622958E-02 6.976235704E+04 1.010077398E+02 2.518653181E+00
 -2.588624958E-01 -1.870067981E-02 6.977158363E+04 1.009012249E+02 2.732256932E+00
 -2.344780130E-01 -1.711434692E-02 6.978214933E+04 1.007790143E+02 2.962050524E+00
 -2.121170695E-01 -1.565688557E-02 6.979425065E+04 1.006387467E+02 3.209138415E+00
 -1.916227505E-01 -1.431871365E-02 6.980811294E+04 1.004777067E+02 3.474698390E+00
 -1.728498065E-01 -1.309095176E-02 6.982399477E+04 1.002927603E+02 3.760011436E+00
 -1.556638104E-01 -1.196536693E-02 6.984219248E+04 1.000802924E+02 4.066458389E+00
 -1.399403739E-01 -1.093432060E-02 6.986304570E+04 9.983612564E+01 4.395534802E+00
 -1.255644200E-01 -9.990720744E-03 6.988694423E+04 9.955542164E+01 4.748874388E+00
 -1.124295062E-01 -9.127977996E-03 6.991433615E+04 9.923256255E+01 5.128275553E+00
 -1.004371969E-01 -8.339965732E-03 6.994573784E+04 9.886099112E+01 5.535731552E+00
 -8.949647957E-02 -7.620983938E-03 6.998174681E+04 9.843303028E+01 5.973465569E+00
 -7.952322320E-02 -6.965726659E-03 7.002305501E+04 9.793962678E+01 6.443965921E+00
 -7.043967490E-02 -6.369252817E-03 7.007046996E+04 9.737009155E+01 6.950026977E+00
 -6.217399298E-02 -5.826960215E-03 7.012493531E+04 9.671151204E+01 7.494827073E+00
 -5.465981325E-02 -5.334562257E-03 7.018757140E+04 9.594858951E+01 8.082002095E+00
 -4.783584649E-02 -4.888067042E-03 7.025965764E+04 9.506209693E+01 8.715695073E+00
 -4.164550487E-02 -4.483758746E-03 7.034264098E+04 9.403259725E+01 9.401903531E+00
 -3.604207510E-02 -4.077885981E-03 7.043752522E+04 9.283799593E+01 1.016055926E+01
 -3.099492679E-02 -3.530654937E-03 7.054535070E+04 9.145385810E+01 1.101984613E+01
 -2.643375303E-02 -3.036869078E-03 7.066917125E+04 8.983599372E+01 1.198954332E+01
 -2.231777510E-02 -2.592006809E-03 7.081278409E+04 8.790972149E+01 1.308213784E+01
 -1.860939619E-02 -2.191887955E-03 7.098055882E+04 8.560750153E+01 1.432441736E+01
 -1.527396436E-02 -1.832651894E-03 7.117639525E+04 8.279078865E+01 1.576487639E+01
 -1.227955243E-02 -1.510736762E-03 7.140954942E+04 7.935850318E+01 1.744365517E+01
 -9.596753856E-03 -1.222859640E-03 7.168174761E+04 7.489179745E+01 1.949669087E+01
 -7.198493424E-03 -9.659976240E-04 7.201918424E+04 6.935275895E+01 2.197507981E+01
 -5.059851568E-03 -7.373696835E-04 7.238276758E+04 6.110656864E+01 2.536957395E+01
 -3.157901448E-03 -5.344187574E-04 7.283831843E+04 5.117733929E+01 2.974213229E+01
 -1.471557704E-03 -3.547931135E-04 7.309962489E+04 3.594200753E+01 3.893207817E+01
 1.856476775E-05 -1.963187265E-04 7.307577759E+04 2.532930117E+01 4.581871718E+01
 -4.916318661E+00 -1.667794339E-01 6.969697066E+04 1.017539635E+02 1.486247549E-02
 -4.541401230E+00 -1.443689765E-01 6.969701393E+04 1.017532606E+02 2.298330144E-02
 -4.194138382E+00 -1.236022617E-01 6.969709074E+04 1.017519342E+02 4.170814109E-02
 -3.872544193E+00 -1.043614139E-01 6.969714869E+04 1.017506849E+02 6.401131929E-02
 -3.574772563E+00 -8.653686718E-02 6.969721904E+04 1.017493634E+02 8.825377416E-02
 -3.297467361E+00 -7.859793856E-02 6.969735152E+04 1.017476130E+02 1.141837510E-01
 -3.040463208E+00 -7.277930928E-02 6.969753865E+04 1.017453719E+02 1.418301529E-01
 -2.802626609E+00 -6.738600875E-02 6.969775156E+04 1.017428661E+02 1.712758737E-01
 -2.582570219E+00 -6.238741010E-02 6.969799464E+04 1.017400335E+02 2.026608431E-01
 -2.379004948E+00 -5.775504901E-02 6.969827603E+04 1.017367919E+02 2.361693165E-01
 -2.190733116E+00 -5.346247260E-02 6.969859885E+04 1.017330986E+02 2.720022513E-01
 -2.016642083E+00 -4.948509925E-02 6.969896801E+04 1.017288926E+02 3.103769475E-01
 -1.855698308E+00 -4.580008864E-02 6.969939041E+04 1.017240957E+02 3.515320352E-01
 -1.706941826E+00 -4.238622109E-02 6.969987351E+04 1.017186215E+02 3.957272536E-01
 -1.569481100E+00 -3.922378561E-02 6.970042580E+04 1.017123717E+02 4.432437574E-01
 -1.442488234E+00 -3.629447595E-02 6.970105717E+04 1.017052317E+02 4.943855215E-01
 -1.325194506E+00 -3.358129412E-02 6.970177907E+04 1.016970688E+02 5.494805346E-01
 -1.216886224E+00 -3.106846075E-02 6.970260473E+04 1.016877302E+02 6.088819807E-01
 -1.116900859E+00 -2.874133178E-02 6.970354943E+04 1.016770388E+02 6.729696062E-01
 -1.024623443E+00 -2.658632113E-02 6.970463086E+04 1.016647895E+02 7.421511633E-01
 -9.394832280E-01 -2.459082864E-02 6.970586946E+04 1.016507451E+02 8.168638963E-01
 -8.609505670E-01 -2.274317305E-02 6.970728888E+04 1.016346310E+02 8.975760808E-01
 -7.885340138E-01 -2.103252955E-02 6.970891647E+04 1.016161293E+02 9.847886196E-01
 -7.217776261E-01 -1.944887151E-02 6.971078384E+04 1.015948722E+02 1.079036670E+00
 -6.602584544E-01 -1.798291603E-02 6.971292749E+04 1.015704344E+02 1.180891310E+00
 -6.035842060E-01 -1.662607297E-02 6.971538958E+04 1.015423239E+02 1.290961194E+00
 -5.513910718E-01 -1.537039714E-02 6.971821876E+04 1.015099722E+02 1.409894314E+00
 -5.033417045E-01 -1.420854334E-02 6.972147113E+04 1.014727229E+02 1.538379996E+00
 -4.591233378E-01 -1.313372406E-02 6.972521134E+04 1.014298176E+02 1.677150431E+00
 -4.184460368E-01 -1.213966938E-02 6.972951385E+04 1.013803820E+02 1.826983380E+00
 -3.810410712E-01 -1.122058917E-02 6.973446428E+04 1.013234073E+02 1.988704970E+00
 -3.466594016E-01 -1.037113707E-02 6.974016104E+04 1.012577352E+02 2.163188881E+00
 -3.150702722E-01 -9.586376356E-03 6.974671729E+04 1.011820215E+02 2.351369230E+00
 -2.860599023E-01 -8.861747432E-03 6.975426264E+04 1.010947168E+02 2.554229678E+00
 -2.594302689E-01 -8.193036974E-03 6.976294586E+04 1.009940556E+02 2.772807917E+00
 -2.349979760E-01 -7.576348607E-03 6.977293807E+04 1.008780074E+02 3.008233110E+00
 -2.125932020E-01 -7.008075196E-03 6.978443522E+04 1.007442188E+02 3.261724458E+00
 -1.920587227E-01 -6.484872731E-03 6.979766079E+04 1.005899794E+02 3.534559940E+00
 -1.732490019E-01 -6.003635917E-03 6.981287080E+04 1.004121756E+02 3.828106985E+00
 -1.560293469E-01 -5.561475521E-03 6.983035919E+04 1.002072088E+02 4.143869263E+00
 -1.402751239E-01 -5.155697571E-03 6.985046285E+04 9.997092244E+01 4.483483600E+00
 -1.258710283E-01 -4.783784472E-03 6.987356791E+04 9.969850568E+01 4.848737732E+00
 -1.127104075E-01 -4.443378107E-03 6.990011786E+04 9.938437479E+01 5.241605736E+00
 -1.006946314E-01 -4.132264939E-03 6.993062355E+04 9.902201534E+01 5.664284421E+00
 -8.973250777E-02 -3.848363109E-03 6.996567563E+04 9.860380258E+01 6.119230913E+00
 -7.973973955E-02 -3.589711448E-03 7.000595799E+04 9.812073988E+01 6.609218813E+00
 -7.063842058E-02 -3.354460321E-03 7.005226849E+04 9.756220735E+01 7.137400830E+00
 -6.235656767E-02 -3.140864156E-03 7.010553802E+04 9.691537956E+01 7.707385950E+00
 -5.482768613E-02 -2.947275376E-03 7.016687198E+04 9.616507338E+01 8.323308575E+00
 -4.799036637E-02 -2.772139501E-03 7.023753210E+04 9.529215493E+01 8.989951092E+00
 -4.178790958E-02 -2.613991320E-03 7.031895054E+04 9.427724828E+01 9.713794366E+00
 -3.617214861E-02 -2.435260811E-03 7.041211432E+04 9.309865018E+01 1.051447207E+01
 -3.110757407E-02 -2.109851277E-03 7.051804920E+04 9.173166776E+01 1.141981918E+01
 -2.653064892E-02 -1.816524056E-03 7.063979351E+04 9.013240962E+01 1.244062167E+01
 -2.240045410E-02 -1.552551171E-03 7.078102808E+04 8.822644436E+01 1.359217095E+01
 -1.867926356E-02 -1.315406052E-03 7.094610442E+04 8.594804957E+01 1.490244219E+01
 -1.533230622E-02 -1.102752062E-03 7.113861806E+04 8.315730765E+01 1.642513827E+01
 -1.232754516E-02 -9.124313566E-04 7.136807264E+04 7.975828192E+01 1.820157564E+01
 -9.635472797E-03 -7.424540585E-04 7.163499885E+04 7.532879426E+01 2.037905580E+01
 -7.228920822E-03 -5.909876641E-04 7.196686526E+04 6.983281222E+01 2.301699694E+01
 -5.082883985E-03 -4.563466334E-04 7.232100151E+04 6.167330258E+01 2.661298713E+01
 -3.174356577E-03 -3.369816934E-04 7.276851915E+04 5.176736211E+01 3.118910782E+01
 -1.482180665E-03 -2.314677614E-04 7.301259428E+04 3.668734847E+01 4.063643966E+01
 1.309555987E-05 -1.384829409E-04 7.297218472E+04 2.626681317E+01 4.769178102E+01
 -4.919121367E+00 4.110405248E-02 6.969599539E+04 1.017578319E+02 1.519693254E-02
 -4.543656566E+00 4.530976772E-02 6.969600507E+04 1.017576697E+02 2.334570141E-02
 -4.195886756E+00 4.921452641E-02 6.969602136E+04 1.017574088E+02 4.212880917E-02
 -3.873823109E+00 5.283977127E-02 6.969603145E+04 1.017571818E+02 6.449148225E-02
 -3.575616824E+00 5.620545052E-02 6.969605384E+04 1.017568696E+02 8.879237213E-02
 -3.298201091E+00 5.267519034E-02 6.969612292E+04 1.017562104E+02 1.147974331E-01
 -3.041144173E+00 4.827843226E-02 6.969623452E+04 1.017551415E+02 1.425460249E-01
 -2.803258757E+00 4.421824627E-02 6.969636662E+04 1.017538379E+02 1.721127787E-01
 -2.583157210E+00 4.047011303E-02 6.969652243E+04 1.017522528E+02 2.036370689E-01
 -2.379550174E+00 3.701125611E-02 6.969670859E+04 1.017503204E+02 2.373064303E-01
 -2.191239725E+00 3.382052103E-02 6.969692795E+04 1.017480045E+02 2.733245179E-01
 -2.017112991E+00 3.087826208E-02 6.969718474E+04 1.017452534E+02 3.119113059E-01
 -1.856136218E+00 2.816623637E-02 6.969748500E+04 1.017419993E+02 3.533091019E-01
 -1.707349243E+00 2.566750487E-02 6.969783545E+04 1.017381656E+02 3.977822603E-01
 -1.569860347E+00 2.336633976E-02 6.969824379E+04 1.017336636E+02 4.456173047E-01
 -1.442841461E+00 2.124813801E-02 6.969871911E+04 1.017283884E+02 4.971244622E-01
 -1.325523708E+00 1.929934059E-02 6.969927203E+04 1.017222177E+02 5.526389943E-01
 -1.217193248E+00 1.750735705E-02 6.969991494E+04 1.017150086E+02 6.125224710E-01
 -1.117187414E+00 1.586049524E-02 6.970066224E+04 1.017065942E+02 6.771642749E-01
 -1.024891115E+00 1.434789567E-02 6.970153071E+04 1.016967800E+02 7.469832216E-01
 -9.397334839E-01 1.295947051E-02 6.970253991E+04 1.016853393E+02 8.224292404E-01
 -8.611847657E-01 1.168584674E-02 6.970371254E+04 1.016720082E+02 9.039851313E-01
 -7.887534136E-01 1.051831336E-02 6.970507499E+04 1.016564795E+02 9.921683901E-01
 -7.219833920E-01 9.448772474E-03 6.970665791E+04 1.016383962E+02 1.087533085E+00
 -6.604516647E-01 8.469693886E-03 6.970849683E+04 1.016173438E+02 1.190671796E+00
 -6.037658589E-01 7.574073297E-03 6.971063293E+04 1.015928408E+02 1.302217636E+00
 -5.515620909E-01 6.755393722E-03 6.971311387E+04 1.015643294E+02 1.422846369E+00
 -5.035029445E-01 6.007590093E-03 6.971599478E+04 1.015311634E+02 1.553278561E+00
 -4.592755892E-01 5.325016885E-03 6.971933931E+04 1.014925948E+02 1.694281887E+00
 -4.185900309E-01 4.702418609E-03 6.972322091E+04 1.014477589E+02 1.846674214E+00
 -3.811774839E-01 4.134903047E-03 6.972772421E+04 1.013956579E+02 2.011325453E+00
 -3.467888576E-01 3.617917074E-03 6.973294659E+04 1.013351388E+02 2.189162241E+00
 -3.151933486E-01 3.147224892E-03 6.973900017E+04 1.012648743E+02 2.381168986E+00
 -2.861771318E-01 2.718888507E-03 6.974601370E+04 1.011833306E+02 2.588398932E+00
 -2.595421433E-01 2.329250241E-03 6.975413439E+04 1.010887334E+02 2.811972264E+00
 -2.351049486E-01 1.974917059E-03 6.976353117E+04 1.009790608E+02 3.053073641E+00
 -2.126956907E-01 1.652746467E-03 6.977439867E+04 1.008519944E+02 3.312995297E+00
 -1.921571120E-01 1.359833732E-03 6.978695954E+04 1.007048365E+02 3.593148629E+00
 -1.733436455E-01 1.093500146E-03 6.980146728E+04 1.005344795E+02 3.895021223E+00
 -1.561205700E-01 8.512820749E-04 6.981821230E+04 1.003373525E+02 4.220216568E+00
 -1.403632250E-01 6.309205204E-04 6.983752807E+04 1.001093240E+02 4.570514875E+00
 -1.259562814E-01 4.303509797E-04 6.985979674E+04 9.984561343E+01 4.947871197E+00
 -1.127930636E-01 2.476933749E-04 6.988545655E+04 9.954067713E+01 5.354444651E+00
 -1.007749203E-01 8.124189566E-05 6.991501183E+04 9.918805185E+01 5.792645952E+00
 -8.981064006E-02 -7.054535952E-05 6.994904515E+04 9.878017628E+01 6.265184658E+00
 -7.981590768E-02 -2.090569992E-04 6.998823053E+04 9.830812894E+01 6.775132092E+00
 -7.071280063E-02 -3.355392488E-04 7.003335396E+04 9.776138502E+01 7.325987019E+00
 -6.242932066E-02 -4.511070754E-04 7.008533087E+04 9.712723877E+01 7.921780466E+00
 -5.489895933E-02 -5.567554000E-04 7.014524788E+04 9.639065414E+01 8.567176955E+00
 -4.806029448E-02 -6.533702323E-04 7.021434428E+04 9.553268128E+01 9.267626215E+00
 -4.185661586E-02 -7.417397119E-04 7.029403490E+04 9.453387903E+01 1.003022538E+01
 -3.623839237E-02 -7.904866709E-04 7.038532066E+04 9.337262799E+01 1.087433600E+01
 -3.116532385E-02 -6.871918698E-04 7.048921851E+04 9.202395165E+01 1.182695440E+01
 -2.658071989E-02 -5.945907372E-04 7.060872630E+04 9.044465038E+01 1.289971514E+01
 -2.244359320E-02 -5.117505908E-04 7.074737462E+04 8.856076445E+01 1.411096745E+01
 -1.871615491E-02 -4.378000440E-04 7.090952178E+04 8.630822886E+01 1.548954486E+01
 -1.536357606E-02 -3.719279424E-04 7.109844284E+04 8.354587756E+01 1.709314778E+01
 -1.235376646E-02 -3.133819055E-04 7.132391970E+04 8.018246610E+01 1.896434911E+01
 -9.657169436E-03 -2.614664766E-04 7.158525118E+04 7.579551222E+01 2.126042509E+01
 -7.246571481E-03 -2.155408807E-04 7.191108775E+04 7.034961865E+01 2.405023396E+01
 -5.096925725E-03 -1.750163427E-04 7.225564408E+04 6.228587376E+01 2.783758850E+01
 -3.185188142E-03 -1.393526168E-04 7.269471667E+04 5.240898129E+01 3.261384129E+01
 -1.490165518E-03 -1.080523966E-04 7.292082191E+04 3.749594839E+01 4.232999866E+01
 7.626351982E-06 -8.064715534E-05 7.286364211E+04 2.727985476E+01 4.956222159E+01
 -4.913313371E+00 2.489252871E-01 6.969501754E+04 1.017617138E+02 1.525898392E-02
 -4.537961316E+00 2.349307326E-01 6.969499337E+04 1.017620965E+02 2.342228522E-02
 -4.190295964E+00 2.219776861E-01 6.969494847E+04 1.017629103E+02 4.224620308E-02
 -3.868329081E+00 2.099912016E-01 6.969491014E+04 1.017637123E+02 6.467282735E-02
 -3.570212413E+00 1.989016376E-01 6.969488431E+04 1.017644136E+02 8.905390752E-02
 -3.293171433E+00 1.839048458E-01 6.969488963E+04 1.017648514E+02 1.151517930E-01
 -3.036510977E+00 1.692958932E-01 6.969492510E+04 1.017649630E+02 1.430049193E-01
 -2.798992463E+00 1.557851800E-01 6.969497571E+04 1.017648705E+02 1.726847041E-01
 -2.579230398E+00 1.432930569E-01 6.969504359E+04 1.017645418E+02 2.043334137E-01
 -2.375937412E+00 1.317455222E-01 6.969513373E+04 1.017639289E+02 2.381426012E-01
 -2.187917424E+00 1.210738287E-01 6.969524867E+04 1.017630016E+02 2.743195921E-01
 -2.014059280E+00 1.112141167E-01 6.969539201E+04 1.017617179E+02 3.130883830E-01
 -1.853330818E+00 1.021070729E-01 6.969556890E+04 1.017600205E+02 3.546957737E-01
 -1.704773358E+00 9.369761148E-02 6.969578526E+04 1.017578430E+02 3.994111050E-01
 -1.567496552E+00 8.593457701E-02 6.969604800E+04 1.017551064E+02 4.475265008E-01
 -1.440673610E+00 7.877046764E-02 6.969636536E+04 1.017517162E+02 4.993585522E-01
 -1.323536840E+00 7.216117710E-02 6.969674712E+04 1.017475604E+02 5.552498150E-01
 -1.215373503E+00 6.606575433E-02 6.969720476E+04 1.017425067E+02 6.155702348E-01
 -1.115521954E+00 6.044617952E-02 6.969775177E+04 1.017363989E+02 6.807188088E-01
 -1.023368051E+00 5.526715565E-02 6.969840402E+04 1.017290537E+02 7.511253849E-01
 -9.383418072E-01 5.049591433E-02 6.969918005E+04 1.017202553E+02 8.272525367E-01
 -8.599142849E-01 4.610203520E-02 6.970010159E+04 1.017097512E+02 9.095975293E-01
 -7.875946956E-01 4.205727790E-02 6.970119402E+04 1.016972458E+02 9.986943768E-01
 -7.209277074E-01 3.833542590E-02 6.970248694E+04 1.016823936E+02 1.095115981E+00
 -6.594909370E-01 3.491214138E-02 6.970401484E+04 1.016647914E+02 1.199476355E+00
 -6.028926168E-01 3.176483056E-02 6.970581781E+04 1.016439697E+02 1.312432933E+00
 -5.507694250E-01 2.887251879E-02 6.970794245E+04 1.016193819E+02 1.434688983E+00
 -5.027844659E-01 2.621573482E-02 6.971044279E+04 1.015903933E+02 1.566996166E+00
 -4.586253917E-01 2.377640366E-02 6.971338139E+04 1.015562672E+02 1.710157308E+00
 -4.180026558E-01 2.153774763E-02 6.971683059E+04 1.015161502E+02 1.865029327E+00
 -3.806478870E-01 1.948419492E-02 6.972087387E+04 1.014690550E+02 2.032526777E+00
 -3.463123791E-01 1.760129532E-02 6.972560751E+04 1.014138403E+02 2.213624594E+00
 -3.147656843E-01 1.587564252E-02 6.973114231E+04 1.013491876E+02 2.409364701E+00
 -2.857943073E-01 1.429480264E-02 6.973760574E+04 1.012735792E+02 2.620859775E+00
 -2.592004892E-01 1.284724840E-02 6.974514400E+04 1.011852612E+02 2.849300726E+00