TITLE     = "fluent22.1.0  build-id: 10213"
VARIABLES = "X"
"Y"
"Pressure"
"X Velocity"
"Y Velocity"
DATASETAUXDATA Common.DensityVar="23"
DATASETAUXDATA Common.PressureVar="3"
DATASETAUXDATA Common.TemperatureVar="12"
DATASETAUXDATA Common.TurbulentDynamicViscosityVar="17"
DATASETAUXDATA Common.UVar="5"
DATASETAUXDATA Common.VectorVarsAreVelocity="TRUE"
DATASETAUXDATA Common.ViscosityVar="25"
DATASETAUXDATA Common.VVar="7"
ZONE T="fluid"
 STRANDID=1, SOLUTIONTIME=1.03
 Nodes=10240, Elements=10080, ZONETYPE=FEQuadrilateral
 DATAPACKING=POINT
 DT=(DOUBLE DOUBLE DOUBLE DOUBLE DOUBLE )
 -4.856290020E+00 -7.872354469E-01 6.969989796E+04 1.017425207E+02 1.251535453E-02
 -4.486972383E+00 -7.104590915E-01 6.970004499E+04 1.017401684E+02 2.058092662E-02
 -4.884823481E+00 -5.813004056E-01 6.969893573E+04 1.017462462E+02 1.353255547E-02
 -4.512985868E+00 -5.225784369E-01 6.969904668E+04 1.017444514E+02 2.163714644E-02
 -4.144896127E+00 -6.393361499E-01 6.970030509E+04 1.017356158E+02 3.923846152E-02
 -4.168575566E+00 -4.681783299E-01 6.969924383E+04 1.017409793E+02 4.035606235E-02
 -3.828105022E+00 -5.734609542E-01 6.970050757E+04 1.017312693E+02 6.151834970E-02
 -3.849622984E+00 -4.177899663E-01 6.969939671E+04 1.017376656E+02 6.268161702E-02
 -3.534780556E+00 -5.124562758E-01 6.970072643E+04 1.017268615E+02 8.570254672E-02
 -3.554297197E+00 -3.711250200E-01 6.969956412E+04 1.017342952E+02 8.693151572E-02
 -3.260715883E+00 -4.702957363E-01 6.970105046E+04 1.017218140E+02 1.114360794E-01
 -3.278672139E+00 -3.403213270E-01 6.969982392E+04 1.017303486E+02 1.127884115E-01
 -3.006563265E+00 -4.339986604E-01 6.970146149E+04 1.017160694E+02 1.387456464E-01
 -3.023124354E+00 -3.141378218E-01 6.970016129E+04 1.017257657E+02 1.402748952E-01
 -2.771365476E+00 -4.004000254E-01 6.970191466E+04 1.017099649E+02 1.677955173E-01
 -2.786635467E+00 -2.898984638E-01 6.970053513E+04 1.017208592E+02 1.695264930E-01
 -2.553750571E+00 -3.693046807E-01 6.970241792E+04 1.017033955E+02 1.987334806E-01
 -2.567826000E+00 -2.674626969E-01 6.970095234E+04 1.017155353E+02 2.006889251E-01
 -2.352443771E+00 -3.405312895E-01 6.970298233E+04 1.016962441E+02 2.317295323E-01
 -2.365414172E+00 -2.466999120E-01 6.970142340E+04 1.017096843E+02 2.339367982E-01
 -2.166260690E+00 -3.139113651E-01 6.970361222E+04 1.016884458E+02 2.669762228E-01
 -2.178209096E+00 -2.274887544E-01 6.970195206E+04 1.017032491E+02 2.694658545E-01
 -1.994101037E+00 -2.892883753E-01 6.970431481E+04 1.016799088E+02 3.046830336E-01
 -2.005104438E+00 -2.097164774E-01 6.970254471E+04 1.016961482E+02 3.074888296E-01
 -1.834942744E+00 -2.665169090E-01 6.970509930E+04 1.016705259E+02 3.450777086E-01
 -1.845072519E+00 -1.932783435E-01 6.970320987E+04 1.016882829E+02 3.482372413E-01
 -1.687836501E+00 -2.454619000E-01 6.970597528E+04 1.016601829E+02 3.884068297E-01
 -1.697158814E+00 -1.780770648E-01 6.970395647E+04 1.016795481E+02 3.919622433E-01
 -1.551900664E+00 -2.259979052E-01 6.970695343E+04 1.016487531E+02 4.349367982E-01
 -1.560476843E+00 -1.640222842E-01 6.970479449E+04 1.016698263E+02 4.389354067E-01
 -1.426316525E+00 -2.080084323E-01 6.970804595E+04 1.016360933E+02 4.849543658E-01
 -1.434203399E+00 -1.510300912E-01 6.970573539E+04 1.016589836E+02 4.894495663E-01
 -1.310323894E+00 -1.913853151E-01 6.970926657E+04 1.016220425E+02 5.387674185E-01
 -1.317574121E+00 -1.390225727E-01 6.970679220E+04 1.016468683E+02 5.438197016E-01
 -1.203216998E+00 -1.760281307E-01 6.971063085E+04 1.016064191E+02 5.967059226E-01
 -1.209879360E+00 -1.279273941E-01 6.970797974E+04 1.016333080E+02 6.023839568E-01
 -1.104340659E+00 -1.618436591E-01 6.971215644E+04 1.015890176E+02 6.591228632E-01
 -1.110460343E+00 -1.176774101E-01 6.970931494E+04 1.016181062E+02 6.655047193E-01
 -1.013086733E+00 -1.487453787E-01 6.971386345E+04 1.015696043E+02 7.263951924E-01
 -1.018705586E+00 -1.082103021E-01 6.971081714E+04 1.016010383E+02 7.335697077E-01
 -9.288908061E-01 -1.366529973E-01 6.971577475E+04 1.015479134E+02 7.989248257E-01
 -9.340475774E-01 -9.946824113E-02 6.971250849E+04 1.015818475E+02 8.069930911E-01
 -8.512291058E-01 -1.254920164E-01 6.971791645E+04 1.015236419E+02 8.771395177E-01
 -8.559596698E-01 -9.139757408E-02 6.971441433E+04 1.015602394E+02 8.862166141E-01
 -7.796156391E-01 -1.151933244E-01 6.972031833E+04 1.014964438E+02 9.614937829E-01
 -7.839532026E-01 -8.394853148E-02 6.971656373E+04 1.015358765E+02 9.717108119E-01
 -7.135995222E-01 -1.056928187E-01 6.972301444E+04 1.014659238E+02 1.052469714E+00
 -7.175748168E-01 -7.707495554E-02 6.971899000E+04 1.015083717E+02 1.063976109E+00
 -6.527624978E-01 -9.693105370E-02 6.972604372E+04 1.014316296E+02 1.150577983E+00
 -6.564039596E-01 -7.073404687E-02 6.972173137E+04 1.014772803E+02 1.163543895E+00
 -5.967166257E-01 -8.885291316E-02 6.972945068E+04 1.013930427E+02 1.256358723E+00
 -6.000505611E-01 -6.488612853E-02 6.972483168E+04 1.014420916E+02 1.270977309E+00
 -5.451021331E-01 -8.140730456E-02 6.973328634E+04 1.013495695E+02 1.370382001E+00
 -5.481528740E-01 -5.949442610E-02 6.972834126E+04 1.014022190E+02 1.386872975E+00
 -4.975854157E-01 -7.454687470E-02 6.973760905E+04 1.013005309E+02 1.493247534E+00
 -5.003754625E-01 -5.452486262E-02 6.973231784E+04 1.013569881E+02 1.511862194E+00
 -4.538571778E-01 -6.822774440E-02 6.974248565E+04 1.012451440E+02 1.625589811E+00
 -4.564073331E-01 -4.994586729E-02 6.973682770E+04 1.013056242E+02 1.646609911E+00
 -4.136307021E-01 -6.240926117E-02 6.974799276E+04 1.011825096E+02 1.768072160E+00
 -4.159601943E-01 -4.572819689E-02 6.974194699E+04 1.012472379E+02 1.791819597E+00
 -3.766402408E-01 -5.705376839E-02 6.975421781E+04 1.011115985E+02 1.921386528E+00
 -3.787668394E-01 -4.184476904E-02 6.974776271E+04 1.011807994E+02 1.948233590E+00
 -3.426395193E-01 -5.212638993E-02 6.976126151E+04 1.010312376E+02 2.086264543E+00
 -3.445796410E-01 -3.827050626E-02 6.975437455E+04 1.011051282E+02 2.116627378E+00
 -3.114003440E-01 -4.759482904E-02 6.976923979E+04 1.009400685E+02 2.263485335E+00
 -3.131691524E-01 -3.498219034E-02 6.976189767E+04 1.010188822E+02 2.297817288E+00
 -2.827113083E-01 -4.342918056E-02 6.977828460E+04 1.008365264E+02 2.453858079E+00
 -2.843228057E-01 -3.195832608E-02 6.977046414E+04 1.009205061E+02 2.492680784E+00
 -2.563765894E-01 -3.960175558E-02 6.978854668E+04 1.007188258E+02 2.658220407E+00
 -2.578437021E-01 -2.917901387E-02 6.978022449E+04 1.008082050E+02 2.702144393E+00
 -2.322148290E-01 -3.608691770E-02 6.980019943E+04 1.005849051E+02 2.877463219E+00
 -2.335494867E-01 -2.662583060E-02 6.979135109E+04 1.006799243E+02 2.927167480E+00
 -2.100580936E-01 -3.286093032E-02 6.981344188E+04 1.004323901E+02 3.112530466E+00
 -2.112713027E-01 -2.428171849E-02 6.980404184E+04 1.005332965E+02 3.168769292E+00
 -1.897509070E-01 -2.990181420E-02 6.982850185E+04 1.002585493E+02 3.364419716E+00
 -1.908528191E-01 -2.213088121E-02 6.981852373E+04 1.003655933E+02 3.428045807E+00
 -1.711493519E-01 -2.718921490E-02 6.984564044E+04 1.000602347E+02 3.634190161E+00
 -1.721493271E-01 -2.015868733E-02 6.983505682E+04 1.001736709E+02 3.706167264E+00
 -1.541202339E-01 -2.470427963E-02 6.986515723E+04 9.983381074E+01 3.922974093E+00
 -1.550269000E-01 -1.835158050E-02 6.985393916E+04 9.995390204E+01 4.004386391E+00
 -1.385403061E-01 -2.242954294E-02 6.988739611E+04 9.957507403E+01 4.231989574E+00
 -1.393616126E-01 -1.669699620E-02 6.987551273E+04 9.970209282E+01 4.324057506E+00
 -1.242955469E-01 -2.034882106E-02 6.991275216E+04 9.927915256E+01 4.562552769E+00
 -1.250388163E-01 -1.518328496E-02 6.990017029E+04 9.941338393E+01 4.666652235E+00
 -1.112804905E-01 -1.844711436E-02 6.994168013E+04 9.894038524E+01 4.916096228E+00
 -1.119524649E-01 -1.379964152E-02 6.992836363E+04 9.908213061E+01 5.033780028E+00
 -9.939760398E-02 -1.671051763E-02 6.997470464E+04 9.855216346E+01 5.294186499E+00
 -1.000044892E-01 -1.253604001E-02 6.996061382E+04 9.870174304E+01 5.427211473E+00
 -8.855670922E-02 -1.512613775E-02 7.001243324E+04 9.810674770E+01 5.698551300E+00
 -8.910421528E-02 -1.138317464E-02 6.999752392E+04 9.826450600E+01 5.848910070E+00
 -7.867444615E-02 -1.368201829E-02 7.005557124E+04 9.759498856E+01 6.131095714E+00
 -7.916782482E-02 -1.033240567E-02 7.003979256E+04 9.776132040E+01 6.301053600E+00
 -6.967377407E-02 -1.236707055E-02 7.010494329E+04 9.700607743E+01 6.593891529E+00
 -7.011785385E-02 -9.375710303E-03 7.008823597E+04 9.718143597E+01 6.786064564E+00
 -6.148350880E-02 -1.117101088E-02 7.016150932E+04 9.632702024E+01 7.089185677E+00
 -6.188272734E-02 -8.505638279E-03 7.014380869E+04 9.651186836E+01 7.306647924E+00
 -5.403789314E-02 -1.008430347E-02 7.022640821E+04 9.554243383E+01 7.619557146E+00
 -5.439632721E-02 -7.715271539E-03 7.020764351E+04 9.573723969E+01 7.865851691E+00
 -4.727619793E-02 -9.098107365E-03 7.030094435E+04 9.463293559E+01 8.187799384E+00
 -4.759759129E-02 -6.998187350E-03 7.028103451E+04 9.483821720E+01 8.467019749E+00
 -4.114235204E-02 -8.204228945E-03 7.038659641E+04 9.357896247E+01 8.798859431E+00
 -4.143014113E-02 -6.348425073E-03 7.036543970E+04 9.379540358E+01 9.115575290E+00
 -3.559281380E-02 -7.346601976E-03 7.048440207E+04 9.235800340E+01 9.474394677E+00
 -3.584880563E-02 -5.716065984E-03 7.046185672E+04 9.258657341E+01 9.833359000E+00
 -3.060697654E-02 -6.357992330E-03 7.059545464E+04 9.094528528E+01 1.024351099E+01
 -3.082792164E-02 -4.947601782E-03 7.057134943E+04 9.118717209E+01 1.064897120E+01
 -2.610121893E-02 -5.465348321E-03 7.072292288E+04 8.929533580E+01 1.111304794E+01
 -2.629048785E-02 -4.253896500E-03 7.069704050E+04 8.955238894E+01 1.156945392E+01
 -2.203525616E-02 -4.660576497E-03 7.087073946E+04 8.733345614E+01 1.208932312E+01
 -2.219593699E-02 -3.628638297E-03 7.084280639E+04 8.760744528E+01 1.260395877E+01
 -1.837194668E-02 -3.936203756E-03 7.104331392E+04 8.498905991E+01 1.319884105E+01
 -1.850686717E-02 -3.065996455E-03 7.101304248E+04 8.528305578E+01 1.377917068E+01
 -1.507705801E-02 -3.285334783E-03 7.124494611E+04 8.212670151E+01 1.448076804E+01
 -1.518880599E-02 -2.560589201E-03 7.121188764E+04 8.244185537E+01 1.513865684E+01
 -1.211904947E-02 -2.701612030E-03 7.148454196E+04 7.863626531E+01 1.597995104E+01
 -1.220999170E-02 -2.107453275E-03 7.144839773E+04 7.897847236E+01 1.672465317E+01
 -9.468870525E-03 -2.179178053E-03 7.176558636E+04 7.411343902E+01 1.780496739E+01
 -9.541170154E-03 -1.702015189E-03 7.172523433E+04 7.447893795E+01 1.866197801E+01
 -7.099773765E-03 -1.712639969E-03 7.211180586E+04 6.850496854E+01 1.999529845E+01
 -7.155406445E-03 -1.340063969E-03 7.206735093E+04 6.890213146E+01 2.100061411E+01
 -4.987141432E-03 -1.297035885E-03 7.249194084E+04 6.011552975E+01 2.300656941E+01
 -5.027910191E-03 -1.017725299E-03 7.243913620E+04 6.057393088E+01 2.421301588E+01
 -3.108324439E-03 -9.278026564E-04 7.296063246E+04 5.014028053E+01 2.699667886E+01
 -3.135873449E-03 -7.314364300E-04 7.290108243E+04 5.062242192E+01 2.840431654E+01
 -1.442492958E-03 -6.007440482E-04 7.324989962E+04 3.459328657E+01 3.576960838E+01
 -1.458320243E-03 -4.779209223E-04 7.317544654E+04 3.522534550E+01 3.739983615E+01
 2.950318352E-05 -3.119902977E-04 7.325429691E+04 2.362132581E+01 4.238905511E+01
 2.403397564E-05 -2.541545121E-04 7.316477122E+04 2.441526795E+01 4.416232453E+01
 -4.904860300E+00 -3.743658139E-01 6.969796041E+04 1.017500591E+02 1.438291330E-02
 -4.531154094E+00 -3.337751705E-01 6.969803771E+04 1.017488062E+02 2.251859191E-02
 -4.185013076E+00 -2.961691214E-01 6.969817553E+04 1.017463984E+02 4.128227055E-02
 -3.864457747E+00 -2.613335355E-01 6.969828183E+04 1.017441137E+02 6.363184019E-02
 -3.567647977E+00 -2.290693493E-01 6.969840107E+04 1.017417715E+02 8.791403199E-02
 -3.290941247E+00 -2.096796739E-01 6.969859764E+04 1.017389252E+02 1.138568514E-01
 -3.034441576E+00 -1.936619429E-01 6.969886056E+04 1.017355115E+02 1.414881261E-01
 -2.797071811E+00 -1.788301676E-01 6.969915454E+04 1.017318026E+02 1.709104235E-01
 -2.577447332E+00 -1.650986685E-01 6.969948529E+04 1.017277197E+02 2.022650262E-01
 -2.374281583E+00 -1.523878274E-01 6.969986225E+04 1.017231659E+02 2.357316832E-01
 -2.186379238E+00 -1.406236647E-01 6.970028884E+04 1.017180917E+02 2.715084177E-01
 -2.012629841E+00 -1.297374460E-01 6.970077069E+04 1.017124263E+02 3.098100083E-01
 -1.852001884E+00 -1.196653169E-01 6.970131553E+04 1.017060810E+02 3.508717823E-01
 -1.703537285E+00 -1.103479633E-01 6.970193161E+04 1.016989603E+02 3.949496408E-01
 -1.566346262E+00 -1.017302946E-01 6.970262815E+04 1.016909561E+02 4.423205172E-01
 -1.439602541E+00 -9.376115042E-02 6.970341587E+04 1.016819441E+02 4.932834941E-01
 -1.322538913E+00 -8.639302671E-02 6.970430703E+04 1.016717819E+02 5.481608117E-01
 -1.214443087E+00 -7.958182158E-02 6.970531569E+04 1.016603066E+02 6.072989574E-01
 -1.114653832E+00 -7.328659866E-02 6.970645797E+04 1.016473312E+02 6.710698897E-01
 -1.022557392E+00 -6.746936703E-02 6.970775241E+04 1.016326404E+02 7.398723099E-01
 -9.375841372E-01 -6.209487631E-02 6.970922036E+04 1.016159868E+02 8.141329816E-01
 -8.592054606E-01 -5.713042613E-02 6.971088633E+04 1.015970855E+02 8.943080788E-01
 -7.869308811E-01 -5.254568860E-02 6.971277858E+04 1.015756082E+02 9.808845536E-01
 -7.203053515E-01 -4.831254304E-02 6.971492958E+04 1.015511769E+02 1.074381485E+00
 -6.589067525E-01 -4.440492188E-02 6.971737676E+04 1.015233560E+02 1.175351496E+00
 -6.023435616E-01 -4.079866715E-02 6.972016315E+04 1.014916435E+02 1.284382187E+00
 -5.502526840E-01 -3.747139635E-02 6.972333828E+04 1.014554610E+02 1.402097687E+00
 -5.022974348E-01 -3.440237741E-02 6.972695912E+04 1.014141425E+02 1.529159553E+00
 -4.581656619E-01 -3.157241168E-02 6.973109117E+04 1.013669202E+02 1.666269108E+00
 -4.175680000E-01 -2.896372454E-02 6.973580977E+04 1.013129107E+02 1.814169411E+00
 -3.802362467E-01 -2.655986294E-02 6.974120138E+04 1.012510989E+02 1.973646021E+00
 -3.459218520E-01 -2.434559939E-02 6.974736514E+04 1.011803071E+02 2.145530981E+00
 -3.143945140E-01 -2.230684196E-02 6.975441492E+04 1.010991884E+02 2.330698474E+00
 -2.854408723E-01 -2.043054980E-02 6.976248157E+04 1.010061975E+02 2.530073895E+00
 -2.588632938E-01 -1.870465391E-02 6.977171529E+04 1.008995543E+02 2.744651917E+00
 -2.344787434E-01 -1.711798293E-02 6.978228808E+04 1.007772078E+02 2.975496484E+00
 -2.121177344E-01 -1.566019354E-02 6.979439640E+04 1.006367945E+02 3.223720081E+00
 -1.916233522E-01 -1.432170551E-02 6.980826535E+04 1.004756001E+02 3.490504507E+00
 -1.728503476E-01 -1.309364110E-02 6.982415334E+04 1.002904901E+02 3.777137621E+00
 -1.556642939E-01 -1.196776879E-02 6.984235657E+04 1.000778484E+02 4.085008548E+00
 -1.399408031E-01 -1.093645125E-02 6.986321446E+04 9.983349727E+01 4.415620887E+00
 -1.255647982E-01 -9.992597399E-03 6.988711652E+04 9.955259780E+01 4.770618011E+00
 -1.124298370E-01 -9.129618590E-03 6.991451064E+04 9.922952993E+01 5.151809220E+00
 -1.004374839E-01 -8.341388638E-03 6.994591308E+04 9.885773389E+01 5.561199272E+00
 -8.949672656E-02 -7.622207709E-03 6.998192097E+04 9.842953152E+01 6.001025331E+00
 -7.952343384E-02 -6.966769775E-03 7.002322566E+04 9.793586863E+01 6.473791685E+00
 -7.043985282E-02 -6.370133455E-03 7.007063420E+04 9.736605303E+01 6.982311443E+00
 -6.217414171E-02 -5.827696027E-03 7.012508981E+04 9.670716635E+01 7.529785435E+00
 -5.465993619E-02 -5.335170185E-03 7.018771231E+04 9.594390405E+01 8.119876487E+00
 -4.783594687E-02 -4.888563154E-03 7.025978021E+04 9.505702970E+01 8.756760227E+00
 -4.164558571E-02 -4.484158110E-03 7.034273898E+04 9.402711105E+01 9.446474338E+00
 -3.604213921E-02 -4.078202541E-03 7.043758718E+04 9.283207347E+01 1.020900039E+01
 -3.099497666E-02 -3.530901414E-03 7.054535663E+04 9.144751964E+01 1.107259662E+01
 -2.643379105E-02 -3.037057134E-03 7.066910063E+04 8.982927238E+01 1.204711930E+01
 -2.231780339E-02 -2.592146891E-03 7.081261280E+04 8.790251064E+01 1.314516680E+01
 -1.860941664E-02 -2.191989308E-03 7.098026142E+04 8.559984975E+01 1.439365492E+01
 -1.527397861E-02 -1.832722607E-03 7.117591877E+04 8.278232260E+01 1.584123558E+01
 -1.227956190E-02 -1.510783825E-03 7.140886391E+04 7.934960756E+01 1.752853566E+01
 -9.596759759E-03 -1.222889017E-03 7.168070761E+04 7.488094075E+01 1.959115620E+01
 -7.198496777E-03 -9.660143351E-04 7.201777258E+04 6.934107214E+01 2.208464836E+01
 -5.059853210E-03 -7.373778836E-04 7.238042760E+04 6.109284540E+01 2.549597430E+01
 -3.157902060E-03 -5.344218186E-04 7.283488742E+04 5.116272308E+01 2.988443950E+01
 -1.471557818E-03 -3.547936877E-04 7.309285439E+04 3.591276989E+01 3.912014378E+01
 1.856476775E-05 -1.963187265E-04 7.306594535E+04 2.528292172E+01 4.604324314E+01
 -4.916318661E+00 -1.667794339E-01 6.969698376E+04 1.017539175E+02 1.492940859E-02
 -4.541401514E+00 -1.443704054E-01 6.969702736E+04 1.017532103E+02 2.308701450E-02
 -4.194138917E+00 -1.236049545E-01 6.969710476E+04 1.017518760E+02 4.189699868E-02
 -3.872544948E+00 -1.043652187E-01 6.969716314E+04 1.017506205E+02 6.430228182E-02
 -3.574773510E+00 -8.654164407E-02 6.969723389E+04 1.017492931E+02 8.865633898E-02
 -3.297468478E+00 -7.860356424E-02 6.969736697E+04 1.017475355E+02 1.147060310E-01
 -3.040464469E+00 -7.278566598E-02 6.969755483E+04 1.017452856E+02 1.424801725E-01
 -2.802627994E+00 -6.739298713E-02 6.969776847E+04 1.017427706E+02 1.720618677E-01
 -2.582571707E+00 -6.239490977E-02 6.969801228E+04 1.017399281E+02 2.035915507E-01
 -2.379006521E+00 -5.776297782E-02 6.969829444E+04 1.017366757E+02 2.372542079E-01
 -2.190734758E+00 -5.347074603E-02 6.969861810E+04 1.017329706E+02 2.732516164E-01
 -2.016643778E+00 -4.949363980E-02 6.969898817E+04 1.017287516E+02 3.118019735E-01
 -1.855700042E+00 -4.580882532E-02 6.969941156E+04 1.017239403E+02 3.531449058E-01
 -1.706943586E+00 -4.239508888E-02 6.969989580E+04 1.017184502E+02 3.975412515E-01
 -1.569482875E+00 -3.923272505E-02 6.970044936E+04 1.017121827E+02 4.452733697E-01
 -1.442490012E+00 -3.630343270E-02 6.970108217E+04 1.017050230E+02 4.966465527E-01
 -1.325196277E+00 -3.359021858E-02 6.970180570E+04 1.016968384E+02 5.519902258E-01
 -1.216887981E+00 -3.107730776E-02 6.970263320E+04 1.016874757E+02 6.116591330E-01
 -1.116902592E+00 -2.875006031E-02 6.970357995E+04 1.016767576E+02 6.760347095E-01
 -1.024625145E+00 -2.659489403E-02 6.970466365E+04 1.016644788E+02 7.455265294E-01
 -9.394848930E-01 -2.459921240E-02 6.970590477E+04 1.016504019E+02 8.205737967E-01
 -8.609521886E-01 -2.275133763E-02 6.970732697E+04 1.016342521E+02 9.016468910E-01
 -7.885355867E-01 -2.104044821E-02 6.970895758E+04 1.016157112E+02 9.892489710E-01
 -7.217791457E-01 -1.945652068E-02 6.971082822E+04 1.015944113E+02 1.083917612E+00
 -6.602599166E-01 -1.799027519E-02 6.971297539E+04 1.015699266E+02 1.186226478E+00
 -6.035856073E-01 -1.663312454E-02 6.971544124E+04 1.015417650E+02 1.296786991E+00
 -5.513924092E-01 -1.537712641E-02 6.971827441E+04 1.015093578E+02 1.416250080E+00
 -5.033429757E-01 -1.421493844E-02 6.972153098E+04 1.014720480E+02 1.545308209E+00
 -4.591245410E-01 -1.313977583E-02 6.972527559E+04 1.014290774E+02 1.684696979E+00
 -4.184471707E-01 -1.214537138E-02 6.972958267E+04 1.013795712E+02 1.835197708E+00
 -3.810421350E-01 -1.122593758E-02 6.973453779E+04 1.013225203E+02 1.997640294E+00
 -3.466603950E-01 -1.037613063E-02 6.974023935E+04 1.012567659E+02 2.172902500E+00
 -3.150711955E-01 -9.591016300E-03 6.974680046E+04 1.011809644E+02 2.361922606E+00
 -2.860607561E-01 -8.866037390E-03 6.975435070E+04 1.010935658E+02 2.565690361E+00
 -2.594310544E-01 -8.196982868E-03 6.976303860E+04 1.009928021E+02 2.785247944E+00
 -2.349986948E-01 -7.579958520E-03 6.977303521E+04 1.008766455E+02 3.021726699E+00
 -2.125938562E-01 -7.011359221E-03 6.978453647E+04 1.007427418E+02 3.276354384E+00
 -1.920593145E-01 -6.487842800E-03 6.979776576E+04 1.005883791E+02 3.550417176E+00
 -1.732495340E-01 -6.006305604E-03 6.981297880E+04 1.004104447E+02 3.845287127E+00
 -1.560298223E-01 -5.563859825E-03 6.983046937E+04 1.002053393E+02 4.162475726E+00
 -1.402755457E-01 -5.157812682E-03 6.985057416E+04 9.996890551E+01 4.503628515E+00
 -1.258714000E-01 -4.785647522E-03 6.987367899E+04 9.969633233E+01 4.870542667E+00
 -1.127107326E-01 -4.445006913E-03 6.990022715E+04 9.938203429E+01 5.265202677E+00
 -1.006949135E-01 -4.133677745E-03 6.993072928E+04 9.901949460E+01 5.689817109E+00
 -8.973275055E-02 -3.849578327E-03 6.996577564E+04 9.860108743E+01 6.146857213E+00
 -7.973994661E-02 -3.590747413E-03 7.000604952E+04 9.811781511E+01 6.639113452E+00
 -7.063859550E-02 -3.355335056E-03 7.005234823E+04 9.755905540E+01 7.169757439E+00
 -6.235671393E-02 -3.141595163E-03 7.010560209E+04 9.691197821E+01 7.742419848E+00
 -5.482780706E-02 -2.947879449E-03 7.016691591E+04 9.616139540E+01 8.361262173E+00
 -4.799046514E-02 -2.772632570E-03 7.023755041E+04 9.528816456E+01 9.031099328E+00
 -4.178798917E-02 -2.614388321E-03 7.031893616E+04 9.427291487E+01 9.758452413E+00
 -3.617221174E-02 -2.435575587E-03 7.041205500E+04 9.309396402E+01 1.056300540E+01
 -3.110762323E-02 -2.110096489E-03 7.051792446E+04 9.172664996E+01 1.147266761E+01
 -2.653068643E-02 -1.816711247E-03 7.063958237E+04 9.012709492E+01 1.249829897E+01
 -2.240048204E-02 -1.552690684E-03 7.078070486E+04 8.822073772E+01 1.365530454E+01
 -1.867928377E-02 -1.315507051E-03 7.094564171E+04 8.594201949E+01 1.497180733E+01
 -1.533232032E-02 -1.102822569E-03 7.113795971E+04 8.315062283E+01 1.650169324E+01
 -1.232755455E-02 -9.124783123E-04 7.136718450E+04 7.975129886E+01 1.828675045E+01
 -9.635478653E-03 -7.424833892E-04 7.163373084E+04 7.532022513E+01 2.047402398E+01
 -7.228924153E-03 -5.910043612E-04 7.196516419E+04 6.982347639E+01 2.312708128E+01
 -5.082885619E-03 -4.563548341E-04 7.231836490E+04 6.166365652E+01 2.673990770E+01
 -3.174357188E-03 -3.369847588E-04 7.276477946E+04 5.175565436E+01 3.133214620E+01
 -1.482180779E-03 -2.314683376E-04 7.300537281E+04 3.666148793E+01 4.082558567E+01
 1.309555987E-05 -1.384829409E-04 7.296181129E+04 2.622744872E+01 4.791767536E+01
 -4.919121367E+00 4.110405248E-02 6.969600410E+04 1.017578033E+02 1.526554144E-02
 -4.543656848E+00 4.530834369E-02 6.969601399E+04 1.017576391E+02 2.345119095E-02
 -4.195887287E+00 4.921184231E-02 6.969603063E+04 1.017573753E+02 4.231962969E-02
 -3.873823860E+00 5.283597820E-02 6.969604094E+04 1.017571467E+02 6.478455652E-02
 -3.575617765E+00 5.620068771E-02 6.969606351E+04 1.017568332E+02 8.919716535E-02
 -3.298202200E+00 5.266958102E-02 6.969613289E+04 1.017561717E+02 1.153221137E-01
 -3.041145426E+00 4.827209405E-02 6.969624488E+04 1.017550993E+02 1.431987174E-01
 -2.803260133E+00 4.421128828E-02 6.969637734E+04 1.017537921E+02 1.729017732E-01
 -2.583158688E+00 4.046263548E-02 6.969653350E+04 1.017522026E+02 2.045711452E-01
 -2.379551737E+00 3.700335097E-02 6.969672002E+04 1.017502653E+02 2.383951007E-01
 -2.191241356E+00 3.381227268E-02 6.969693976E+04 1.017479436E+02 2.745781138E-01
 -2.017114674E+00 3.086974786E-02 6.969719697E+04 1.017451860E+02 3.133410549E-01
 -1.856137939E+00 2.815752717E-02 6.969749772E+04 1.017419243E+02 3.549272304E-01
 -1.707350990E+00 2.565866557E-02 6.969784873E+04 1.017380819E+02 3.996020973E-01
 -1.569862108E+00 2.335742972E-02 6.969825772E+04 1.017335698E+02 4.476533879E-01
 -1.442843225E+00 2.123921145E-02 6.969873381E+04 1.017282832E+02 4.993926516E-01
 -1.325525465E+00 1.929044699E-02 6.969928764E+04 1.017220994E+02 5.551565914E-01
 -1.217194990E+00 1.749854147E-02 6.969993158E+04 1.017148754E+02 6.153083430E-01
 -1.117189132E+00 1.585179859E-02 6.970068006E+04 1.017064443E+02 6.802389829E-01
 -1.024892802E+00 1.433935500E-02 6.970154989E+04 1.016966113E+02 7.503691544E-01
 -9.397351337E-01 1.295111920E-02 6.970256059E+04 1.016851495E+02 8.261507520E-01
 -8.611863720E-01 1.167771470E-02 6.970373490E+04 1.016717949E+02 9.080686851E-01
 -7.887549713E-01 1.051042722E-02 6.970509920E+04 1.016562401E+02 9.966427111E-01
 -7.219848963E-01 9.441155667E-03 6.970668412E+04 1.016381278E+02 1.092429321E+00
 -6.604531117E-01 8.462366810E-03 6.970852520E+04 1.016170433E+02 1.196023686E+00
 -6.037672450E-01 7.567053390E-03 6.971066361E+04 1.015925051E+02 1.308061682E+00
 -5.515634134E-01 6.748695544E-03 6.971314699E+04 1.015639550E+02 1.429222020E+00
 -5.035042010E-01 6.001225398E-03 6.971603044E+04 1.015307465E+02 1.560228416E+00
 -4.592767781E-01 5.318994679E-03 6.971937760E+04 1.014921316E+02 1.701851900E+00
 -4.185911508E-01 4.696745212E-03 6.972326189E+04 1.014472454E+02 1.854913945E+00
 -3.811785341E-01 4.129582157E-03 6.972776789E+04 1.013950896E+02 2.020288233E+00
 -3.467898380E-01 3.612949831E-03 6.973299295E+04 1.013345112E+02 2.198905409E+00
 -3.151942594E-01 3.142609958E-03 6.973904914E+04 1.012641821E+02 2.391754689E+00
 -2.861779738E-01 2.714622158E-03 6.974606513E+04 1.011825697E+02 2.599893496E+00
 -2.595429177E-01 2.325326479E-03 6.975418805E+04 1.010878988E+02 2.824448115E+00
 -2.351056570E-01 1.971327741E-03 6.976358663E+04 1.009781451E+02 3.066608061E+00
 -2.126963351E-01 1.649481458E-03 6.977445538E+04 1.008509926E+02 3.327668251E+00
 -1.921576948E-01 1.356881079E-03 6.978701691E+04 1.007037435E+02 3.609049701E+00
 -1.733441694E-01 1.090846275E-03 6.980152455E+04 1.005332889E+02 3.912248600E+00
 -1.561210380E-01 8.489120047E-04 6.981826841E+04 1.003360583E+02 4.238873623E+00
 -1.403636402E-01 6.288180997E-04 6.983758175E+04 1.001079195E+02 4.590713333E+00
 -1.259566471E-01 4.284991323E-04 6.985984642E+04 9.984409165E+01 4.969732865E+00
 -1.127933834E-01 2.460743551E-04 6.988550041E+04 9.953902998E+01 5.378101916E+00
 -1.007751979E-01 7.983754544E-05 6.991504779E+04 9.918626915E+01 5.818242937E+00
 -8.981087888E-02 -7.175335608E-05 6.994907067E+04 9.877824677E+01 6.292879856E+00
 -7.981611138E-02 -2.100868715E-04 6.998824249E+04 9.830604060E+01 6.805100535E+00
 -7.071297272E-02 -3.364089109E-04 7.003334860E+04 9.775912417E+01 7.358422626E+00
 -6.242946458E-02 -4.518339176E-04 7.008530378E+04 9.712478778E+01 7.956899441E+00
 -5.489907835E-02 -5.573561056E-04 7.014519393E+04 9.638799112E+01 8.605222812E+00
 -4.806039171E-02 -6.538606229E-04 7.021425720E+04 9.552977686E+01 9.308874983E+00
 -4.185669424E-02 -7.421346218E-04 7.029390668E+04 9.453070863E+01 1.007499404E+01
 -3.623845457E-02 -7.907998571E-04 7.038513832E+04 9.336918883E+01 1.092299153E+01
 -3.116537232E-02 -6.874359348E-04 7.048896108E+04 9.202026597E+01 1.187993587E+01
 -2.658075689E-02 -5.947771262E-04 7.060837230E+04 9.044075655E+01 1.295753347E+01
 -2.244362079E-02 -5.118895648E-04 7.074689659E+04 8.855657610E+01 1.417425452E+01
 -1.871617489E-02 -4.379006971E-04 7.090889096E+04 8.630382387E+01 1.555906847E+01
 -1.536359001E-02 -3.719982418E-04 7.109760038E+04 8.354096118E+01 1.716987506E+01
 -1.235377576E-02 -3.134287470E-04 7.132282693E+04 8.017739072E+01 1.904973090E+01
 -9.657175243E-03 -2.614957530E-04 7.158375413E+04 7.578924861E+01 2.135573960E+01
 -7.246574789E-03 -2.155575582E-04 7.190910136E+04 7.034276431E+01 2.416058497E+01
 -5.096927351E-03 -1.750245409E-04 7.225270851E+04 6.227978124E+01 2.796489838E+01
 -3.185188750E-03 -1.393556855E-04 7.269064912E+04 5.240016087E+01 3.275794002E+01
 -1.490165633E-03 -1.080529746E-04 7.291312598E+04 3.747386401E+01 4.252089516E+01
 7.626351982E-06 -8.064715534E-05 7.285270588E+04 2.724706232E+01 4.979021074E+01
 -4.913313371E+00 2.489252871E-01 6.969502186E+04 1.017617025E+02 1.532804944E-02
 -4.537961596E+00 2.349293112E-01 6.969499776E+04 1.017620857E+02 2.352826486E-02
 -4.190296493E+00 2.219750066E-01 6.969495298E+04 1.017629015E+02 4.243761498E-02
 -3.868329828E+00 2.099874145E-01 6.969491466E+04 1.017637066E+02 6.496666677E-02
 -3.570213350E+00 1.988968817E-01 6.969488878E+04 1.017644113E+02 8.945969207E-02
 -3.293172536E+00 1.838992450E-01 6.969489412E+04 1.017648517E+02 1.156777306E-01
 -3.036512223E+00 1.692895651E-01 6.969492962E+04 1.017649652E+02 1.436591634E-01
 -2.798993832E+00 1.557782334E-01 6.969498023E+04 1.017648744E+02 1.734755502E-01
 -2.579231868E+00 1.432855921E-01 6.969504806E+04 1.017645471E+02 2.052696498E-01
 -2.375938966E+00 1.317376310E-01 6.969513814E+04 1.017639350E+02 2.392337535E-01
 -2.187919045E+00 1.210655953E-01 6.969525301E+04 1.017630083E+02 2.755760097E-01
 -2.014060953E+00 1.112056184E-01 6.969539629E+04 1.017617243E+02 3.145213162E-01
 -1.853332530E+00 1.020983805E-01 6.969557314E+04 1.017600262E+02 3.563174770E-01
 -1.704775094E+00 9.368878977E-02 6.969578949E+04 1.017578471E+02 4.012349410E-01
 -1.567498302E+00 8.592568528E-02 6.969605227E+04 1.017551082E+02 4.495670458E-01
 -1.440675363E+00 7.876156004E-02 6.969636973E+04 1.017517147E+02 5.016317104E-01
 -1.323538586E+00 7.215230305E-02 6.969675166E+04 1.017475546E+02 5.577729372E-01
 -1.215375233E+00 6.605695880E-02 6.969720954E+04 1.017424953E+02 6.183622428E-01
 -1.115523660E+00 6.043750335E-02 6.969775688E+04 1.017363809E+02 6.838003234E-01
 -1.023369725E+00 5.525863581E-02 6.969840953E+04 1.017290274E+02 7.545188600E-01
 -9.383434441E-01 5.048758413E-02 6.969918606E+04 1.017202194E+02 8.309823966E-01
 -8.599158781E-01 4.609392449E-02 6.970010819E+04 1.017097040E+02 9.136903137E-01
 -7.875962401E-01 4.204941320E-02 6.970120128E+04 1.016971855E+02 1.003178892E+00
 -7.209291985E-01 3.832783058E-02 6.970249494E+04 1.016823182E+02 1.100023459E+00
 -6.594923707E-01 3.490483574E-02 6.970402363E+04 1.016646989E+02 1.204840621E+00
 -6.028939899E-01 3.175783196E-02 6.970582745E+04 1.016438577E+02 1.318290580E+00
 -5.507707346E-01 2.886584170E-02 6.970795297E+04 1.016192481E+02 1.441079554E+00
 -5.027857097E-01 2.620939088E-02 6.971045420E+04 1.015902351E+02 1.573962353E+00
 -4.586265681E-01 2.377040180E-02 6.971339366E+04 1.015560817E+02 1.717745164E+00
 -4.180037634E-01 2.153209408E-02 6.971684366E+04 1.015159346E+02 1.873288489E+00
 -3.806489254E-01 1.947889329E-02 6.972088765E+04 1.014688060E+02 2.041510642E+00
 -3.463133480E-01 1.759634665E-02 6.972562184E+04 1.014135546E+02 2.223390700E+00
 -3.147665842E-01 1.587104539E-02 6.973115700E+04 1.013488617E+02 2.419974889E+00
 -2.857951388E-01 1.429055326E-02 6.973762048E+04 1.012732092E+02 2.632380896E+00
 -2.592012536E-01 1.284334070E-02 6.974515842E+04 1.011848445E+02 2.861804368E+00