TITLE     = "fluent22.1.0  build-id: 10213"
VARIABLES = "X"
"Y"
"Pressure"
"X Velocity"
"Y Velocity"
DATASETAUXDATA Common.DensityVar="23"
DATASETAUXDATA Common.PressureVar="3"
DATASETAUXDATA Common.TemperatureVar="12"
DATASETAUXDATA Common.TurbulentDynamicViscosityVar="17"
DATASETAUXDATA Common.UVar="5"
DATASETAUXDATA Common.VectorVarsAreVelocity="TRUE"
DATASETAUXDATA Common.ViscosityVar="25"
DATASETAUXDATA Common.VVar="7"
ZONE T="fluid"
 STRANDID=1, SOLUTIONTIME=1.0325
 Nodes=10240, Elements=10080, ZONETYPE=FEQuadrilateral
 DATAPACKING=POINT
 DT=(DOUBLE DOUBLE DOUBLE DOUBLE DOUBLE )
 -4.856290020E+00 -7.872354469E-01 6.969991058E+04 1.017424694E+02 1.254218963E-02
 -4.486972530E+00 -7.104598204E-01 6.970005811E+04 1.017401121E+02 2.062604234E-02
 -4.884823481E+00 -5.813004056E-01 6.969894628E+04 1.017462037E+02 1.356190433E-02
 -4.512986013E+00 -5.225791598E-01 6.969905762E+04 1.017444050E+02 2.168482459E-02
 -4.144896404E+00 -6.393375223E-01 6.970031901E+04 1.017355498E+02 3.932590089E-02
 -4.168575839E+00 -4.681796914E-01 6.969925542E+04 1.017409255E+02 4.044611235E-02
 -3.828105413E+00 -5.734628918E-01 6.970052197E+04 1.017311942E+02 6.165640797E-02
 -3.849623370E+00 -4.177918892E-01 6.969940864E+04 1.017376049E+02 6.282229127E-02
 -3.534781046E+00 -5.124587067E-01 6.970074119E+04 1.017267771E+02 8.589572053E-02
 -3.554297682E+00 -3.711274331E-01 6.969957630E+04 1.017342274E+02 8.712736060E-02
 -3.260716459E+00 -4.702985971E-01 6.970106575E+04 1.017217191E+02 1.116881387E-01
 -3.278672710E+00 -3.403241678E-01 6.969983649E+04 1.017302728E+02 1.130433169E-01
 -3.006563916E+00 -4.340018915E-01 6.970147743E+04 1.017159627E+02 1.390603521E-01
 -3.023124999E+00 -3.141410309E-01 6.970017436E+04 1.017256807E+02 1.405927252E-01
 -2.771366191E+00 -4.004035718E-01 6.970193130E+04 1.017098458E+02 1.681768990E-01
 -2.786636175E+00 -2.899019864E-01 6.970054873E+04 1.017207646E+02 1.699113169E-01
 -2.553751340E+00 -3.693084916E-01 6.970243533E+04 1.017032635E+02 1.991858325E-01
 -2.567826761E+00 -2.674664825E-01 6.970096653E+04 1.017154305E+02 2.011450657E-01
 -2.352444583E+00 -3.405353184E-01 6.970300063E+04 1.016960982E+02 2.322574776E-01
 -2.365414976E+00 -2.467039143E-01 6.970143827E+04 1.017095686E+02 2.344689100E-01
 -2.166261538E+00 -3.139155694E-01 6.970363150E+04 1.016882849E+02 2.675847806E-01
 -2.178209935E+00 -2.274929308E-01 6.970196770E+04 1.017031214E+02 2.700789898E-01
 -1.994101913E+00 -2.892927159E-01 6.970433522E+04 1.016797319E+02 3.053776733E-01
 -2.005105305E+00 -2.097207892E-01 6.970256124E+04 1.016960076E+02 3.081884920E-01
 -1.834943641E+00 -2.665213501E-01 6.970512097E+04 1.016703315E+02 3.458644023E-01
 -1.845073406E+00 -1.932827548E-01 6.970322740E+04 1.016881283E+02 3.490294381E-01
 -1.687837411E+00 -2.454664089E-01 6.970599836E+04 1.016599696E+02 3.892921019E-01
 -1.697159715E+00 -1.780815430E-01 6.970397513E+04 1.016793782E+02 3.928535356E-01
 -1.551901582E+00 -2.260024518E-01 6.970697808E+04 1.016485194E+02 4.359277760E-01
 -1.560477751E+00 -1.640267994E-01 6.970481442E+04 1.016696397E+02 4.399329592E-01
 -1.426317446E+00 -2.080129893E-01 6.970807233E+04 1.016358373E+02 4.860588284E-01
 -1.434204309E+00 -1.510346160E-01 6.970575671E+04 1.016587789E+02 4.905611971E-01
 -1.310324812E+00 -1.913898572E-01 6.970929484E+04 1.016217625E+02 5.399938466E-01
 -1.317575028E+00 -1.390270822E-01 6.970681506E+04 1.016466438E+02 5.450539320E-01
 -1.203217909E+00 -1.760326352E-01 6.971066117E+04 1.016061131E+02 5.980635504E-01
 -1.209880261E+00 -1.279318656E-01 6.970800427E+04 1.016330622E+02 6.037500631E-01
 -1.104341559E+00 -1.618481051E-01 6.971218898E+04 1.015886835E+02 6.606217365E-01
 -1.110461231E+00 -1.176818229E-01 6.970934127E+04 1.016178372E+02 6.670127895E-01
 -1.013087618E+00 -1.487497474E-01 6.971389837E+04 1.015692398E+02 7.280462300E-01
 -1.018706460E+00 -1.082146374E-01 6.971084541E+04 1.016007442E+02 7.352307028E-01
 -9.288916722E-01 -1.366572716E-01 6.971581223E+04 1.015475161E+02 8.007398905E-01
 -9.340484324E-01 -9.947248203E-02 6.971253884E+04 1.015815262E+02 8.088189146E-01
 -8.512299502E-01 -1.254961810E-01 6.971795666E+04 1.015232092E+02 8.791314898E-01
 -8.559605032E-01 -9.140170537E-02 6.971444690E+04 1.015598887E+02 8.882201831E-01
 -7.796164591E-01 -1.151973656E-01 6.972036145E+04 1.014959731E+02 9.636766162E-01
 -7.839540115E-01 -8.395253959E-02 6.971659866E+04 1.015354941E+02 9.739061192E-01
 -7.136003152E-01 -1.056967243E-01 6.972306066E+04 1.014654120E+02 1.054858510E+00
 -7.175755988E-01 -7.707882849E-02 6.971902744E+04 1.015079550E+02 1.066378297E+00
 -6.527632617E-01 -9.693481325E-02 6.972609323E+04 1.014310736E+02 1.153189065E+00
 -6.564047126E-01 -7.073777419E-02 6.972177147E+04 1.014768266E+02 1.166169335E+00
 -5.967173586E-01 -8.885651746E-02 6.972950369E+04 1.013924392E+02 1.259209761E+00
 -6.000512833E-01 -6.488970123E-02 6.972487461E+04 1.014415981E+02 1.273843718E+00
 -5.451028334E-01 -8.141074591E-02 6.973334307E+04 1.013489147E+02 1.373492122E+00
 -5.481535638E-01 -5.949783663E-02 6.972838718E+04 1.014016825E+02 1.389999490E+00
 -4.975860822E-01 -7.455014681E-02 6.973766971E+04 1.012998211E+02 1.496637369E+00
 -5.003761188E-01 -5.452810482E-02 6.973236693E+04 1.013564054E+02 1.515269446E+00
 -4.538578094E-01 -6.823084238E-02 6.974255048E+04 1.012443753E+02 1.629281518E+00
 -4.564079547E-01 -4.994893640E-02 6.973688012E+04 1.013049917E+02 1.650320229E+00
 -4.136312980E-01 -6.241218148E-02 6.974806195E+04 1.011816779E+02 1.772089801E+00
 -4.159607806E-01 -4.573108951E-02 6.974200291E+04 1.012465520E+02 1.795856976E+00
 -3.766408006E-01 -5.705650882E-02 6.975429156E+04 1.011106992E+02 1.925756083E+00
 -3.787673898E-01 -4.184748305E-02 6.974782225E+04 1.011800564E+02 1.952623783E+00
 -3.426400427E-01 -5.212894959E-02 6.976134000E+04 1.010302663E+02 2.091013545E+00
 -3.445801555E-01 -3.827304089E-02 6.975443786E+04 1.011043247E+02 2.121398127E+00
 -3.114008309E-01 -4.759720830E-02 6.976932318E+04 1.009390208E+02 2.268642997E+00
 -3.131696309E-01 -3.498454606E-02 6.976196486E+04 1.010180138E+02 2.302998735E+00
 -2.827117591E-01 -4.343138105E-02 6.977837302E+04 1.008353975E+02 2.459456538E+00
 -2.843232485E-01 -3.196050458E-02 6.977053525E+04 1.009195680E+02 2.498304410E+00
 -2.563770045E-01 -3.960378011E-02 6.978864026E+04 1.007176104E+02 2.664294584E+00
 -2.578441098E-01 -2.918101802E-02 6.978029957E+04 1.008071934E+02 2.708244222E+00
 -2.322152093E-01 -3.608877022E-02 6.980029827E+04 1.005835976E+02 2.884049952E+00
 -2.335498600E-01 -2.662766438E-02 6.979143020E+04 1.006788341E+02 2.933781027E+00
 -2.100584399E-01 -3.286261581E-02 6.981354603E+04 1.004309850E+02 3.119669299E+00
 -2.112716426E-01 -2.428338689E-02 6.980412497E+04 1.005321229E+02 3.175936172E+00
 -1.897512206E-01 -2.990333863E-02 6.982861132E+04 1.002570407E+02 3.372153351E+00
 -1.908531268E-01 -2.213239021E-02 6.981861080E+04 1.003643311E+02 3.435808571E+00
 -1.711496339E-01 -2.719058512E-02 6.984575518E+04 1.000586161E+02 3.642564494E+00
 -1.721496039E-01 -2.016004374E-02 6.983514770E+04 1.001723147E+02 3.714571834E+00
 -1.541204860E-01 -2.470550323E-02 6.986527714E+04 9.983207575E+01 3.932038400E+00
 -1.550271473E-01 -1.835279187E-02 6.985403366E+04 9.995244603E+01 4.013482031E+00
 -1.385405299E-01 -2.243062818E-02 6.988752108E+04 9.957321475E+01 4.241798408E+00
 -1.393618321E-01 -1.669807072E-02 6.987561063E+04 9.970053009E+01 4.333898852E+00
 -1.242957442E-01 -2.034977670E-02 6.991288207E+04 9.927715980E+01 4.573162956E+00
 -1.250390097E-01 -1.518423130E-02 6.990027138E+04 9.941170661E+01 4.677296071E+00
 -1.112806630E-01 -1.844794954E-02 6.994181457E+04 9.893825186E+01 4.927568211E+00
 -1.119526341E-01 -1.380046872E-02 6.992846743E+04 9.908033291E+01 5.045286991E+00
 -9.939775364E-02 -1.671124173E-02 6.997484276E+04 9.854988440E+01 5.306588969E+00
 -1.000046361E-01 -1.253675734E-02 6.996071934E+04 9.869982049E+01 5.439650707E+00
 -8.855683796E-02 -1.512676025E-02 7.001257415E+04 9.810431460E+01 5.711959639E+00
 -8.910434162E-02 -1.138379147E-02 6.999763011E+04 9.826245137E+01 5.862356950E+00
 -7.867455590E-02 -1.368254865E-02 7.005571427E+04 9.759238835E+01 6.145592256E+00
 -7.916793255E-02 -1.033293134E-02 7.003989855E+04 9.775912245E+01 6.315589900E+00
 -6.967386672E-02 -1.236751807E-02 7.010508768E+04 9.700329466E+01 6.609566494E+00
 -7.011794482E-02 -9.376153997E-03 7.008834080E+04 9.717908121E+01 6.801780314E+00
 -6.148358620E-02 -1.117138459E-02 7.016165404E+04 9.632403789E+01 7.106138682E+00
 -6.188280336E-02 -8.506008915E-03 7.014391112E+04 9.650934201E+01 7.323643405E+00
 -5.403795707E-02 -1.008461205E-02 7.022655188E+04 9.553923307E+01 7.637899470E+00
 -5.439639003E-02 -7.715577680E-03 7.020774189E+04 9.573452570E+01 7.884238711E+00
 -4.727625009E-02 -9.098359036E-03 7.030108514E+04 9.462949332E+01 8.207656531E+00
 -4.759764256E-02 -6.998437115E-03 7.028112668E+04 9.483529576E+01 8.486923930E+00
 -4.114239401E-02 -8.204431414E-03 7.038673189E+04 9.357525881E+01 8.820376448E+00
 -4.143018241E-02 -6.348626076E-03 7.036552278E+04 9.379226072E+01 9.137140331E+00
 -3.559284704E-02 -7.346762347E-03 7.048452732E+04 9.235402801E+01 9.497744024E+00
 -3.584883835E-02 -5.716225257E-03 7.046192532E+04 9.258320310E+01 9.856755721E+00
 -3.060700235E-02 -6.358117019E-03 7.059556068E+04 9.094105261E+01 1.026889159E+01
 -3.082794707E-02 -4.947725713E-03 7.057139462E+04 9.118358578E+01 1.067439819E+01
 -2.610123857E-02 -5.465443319E-03 7.072299982E+04 8.929086562E+01 1.114068590E+01
 -2.629050722E-02 -4.253990995E-03 7.069705243E+04 8.954860481E+01 1.159713507E+01
 -2.203527074E-02 -4.660647155E-03 7.087077608E+04 8.732872116E+01 1.211947873E+01
 -2.219595139E-02 -3.628708638E-03 7.084277340E+04 8.760344073E+01 1.263415041E+01
 -1.837195719E-02 -3.936254802E-03 7.104329665E+04 8.498406828E+01 1.323184779E+01
 -1.850687756E-02 -3.066047313E-03 7.101295066E+04 8.527884310E+01 1.381219468E+01
 -1.507706532E-02 -3.285370341E-03 7.124485221E+04 8.212140194E+01 1.451700205E+01
 -1.518881322E-02 -2.560624658E-03 7.121171369E+04 8.243737174E+01 1.517488818E+01
 -1.211905432E-02 -2.701635658E-03 7.148434748E+04 7.863083959E+01 1.601986212E+01
 -1.220999650E-02 -2.107476856E-03 7.144811932E+04 7.897385824E+01 1.676456692E+01
 -9.468873536E-03 -2.179192778E-03 7.176523311E+04 7.410743467E+01 1.784900016E+01
 -9.541173143E-03 -1.702029897E-03 7.172479061E+04 7.447370858E+01 1.870614957E+01
 -7.099775470E-03 -1.712648330E-03 7.211130803E+04 6.849973557E+01 2.004341697E+01
 -7.155408140E-03 -1.340072328E-03 7.206676317E+04 6.889751284E+01 2.104913901E+01
 -4.987142264E-03 -1.297039979E-03 7.249099820E+04 6.010312407E+01 2.306050537E+01
 -5.027911021E-03 -1.017729397E-03 7.243809421E+04 6.056236926E+01 2.426786243E+01
 -3.108324748E-03 -9.278041813E-04 7.296058891E+04 5.012709808E+01 2.706103905E+01
 -3.135873758E-03 -7.314379579E-04 7.290093390E+04 5.060983454E+01 2.846998574E+01
 -1.442493015E-03 -6.007443333E-04 7.324739576E+04 3.452678717E+01 3.585689581E+01
 -1.458320301E-03 -4.779212085E-04 7.317269311E+04 3.516341429E+01 3.748931164E+01
 2.950318352E-05 -3.119902977E-04 7.324802891E+04 2.349369157E+01 4.249272636E+01
 2.403397564E-05 -2.541545121E-04 7.315809912E+04 2.429679423E+01 4.426902627E+01
 -4.904860300E+00 -3.743658139E-01 6.969796886E+04 1.017500254E+02 1.441437545E-02
 -4.531154238E+00 -3.337758885E-01 6.969804647E+04 1.017487698E+02 2.256841847E-02
 -4.185013347E+00 -2.961704742E-01 6.969818476E+04 1.017463567E+02 4.137448519E-02
 -3.864458130E+00 -2.613354465E-01 6.969829129E+04 1.017440674E+02 6.377463749E-02
 -3.567648457E+00 -2.290717480E-01 6.969841068E+04 1.017417205E+02 8.811198224E-02
 -3.290941812E+00 -2.096824985E-01 6.969860751E+04 1.017388686E+02 1.141139591E-01
 -3.034442214E+00 -1.936651343E-01 6.969887076E+04 1.017354483E+02 1.418083719E-01
 -2.797072512E+00 -1.788336709E-01 6.969916511E+04 1.017317325E+02 1.712979167E-01
 -2.577448086E+00 -1.651024335E-01 6.969949626E+04 1.017276423E+02 2.027241135E-01
 -2.374282380E+00 -1.523918079E-01 6.969987370E+04 1.017230804E+02 2.362670484E-01
 -2.186380069E+00 -1.406278184E-01 6.970030085E+04 1.017179973E+02 2.721251415E-01
 -2.012630700E+00 -1.297417340E-01 6.970078334E+04 1.017123222E+02 3.105136215E-01
 -1.852002762E+00 -1.196697037E-01 6.970132894E+04 1.017059662E+02 3.516683202E-01
 -1.703538177E+00 -1.103524163E-01 6.970194586E+04 1.016988338E+02 3.958456945E-01
 -1.566347161E+00 -1.017347839E-01 6.970264336E+04 1.016908167E+02 4.433232831E-01
 -1.439603442E+00 -9.376564887E-02 6.970343215E+04 1.016817906E+02 4.944008239E-01
 -1.322539811E+00 -8.639750942E-02 6.970432449E+04 1.016716130E+02 5.494012625E-01
 -1.214443977E+00 -7.958626589E-02 6.970533443E+04 1.016601209E+02 6.086718435E-01
 -1.114654712E+00 -7.329098400E-02 6.970647810E+04 1.016471272E+02 6.725853385E-01
 -1.022558256E+00 -6.747367473E-02 6.970777404E+04 1.016324166E+02 7.415413222E-01
 -9.375849824E-01 -6.209908954E-02 6.970924359E+04 1.016157414E+02 8.159674993E-01
 -8.592062840E-01 -5.713452980E-02 6.971091127E+04 1.015968166E+02 8.963210563E-01
 -7.869316801E-01 -5.254966926E-02 6.971280533E+04 1.015753140E+02 9.830900242E-01
 -7.203061236E-01 -4.831638880E-02 6.971495826E+04 1.015508552E+02 1.076794633E+00
 -6.589074957E-01 -4.440862240E-02 6.971740747E+04 1.015230046E+02 1.177988738E+00
 -6.023442741E-01 -4.080221354E-02 6.972019601E+04 1.014912600E+02 1.287261268E+00
 -5.502533643E-01 -3.747478118E-02 6.972337341E+04 1.014550428E+02 1.405237779E+00
 -5.022980817E-01 -3.440559465E-02 6.972699665E+04 1.014136867E+02 1.532581350E+00
 -4.581662744E-01 -3.157545666E-02 6.973113121E+04 1.013664240E+02 1.669994923E+00
 -4.175685775E-01 -2.896659396E-02 6.973585242E+04 1.013123710E+02 1.818223316E+00
 -3.802367887E-01 -2.656255480E-02 6.974124673E+04 1.012505126E+02 1.978053739E+00
 -3.459223584E-01 -2.434811300E-02 6.974741327E+04 1.011796713E+02 2.150320375E+00
 -3.143949848E-01 -2.230917786E-02 6.975446590E+04 1.010984994E+02 2.335899766E+00
 -2.854413078E-01 -2.043270974E-02 6.976253538E+04 1.010054510E+02 2.535719127E+00
 -2.588636946E-01 -1.870664082E-02 6.977177190E+04 1.008987468E+02 2.750774588E+00
 -2.344791103E-01 -1.711980081E-02 6.978234745E+04 1.007763358E+02 2.982133483E+00
 -2.121180684E-01 -1.566184742E-02 6.979445846E+04 1.006358535E+02 3.230911905E+00
 -1.916236544E-01 -1.432320136E-02 6.980832996E+04 1.004745858E+02 3.498293852E+00
 -1.728506195E-01 -1.309498570E-02 6.982422029E+04 1.002893979E+02 3.785570364E+00
 -1.556645369E-01 -1.196896966E-02 6.984242557E+04 1.000766735E+02 4.094134230E+00
 -1.399410187E-01 -1.093751652E-02 6.986328516E+04 9.983223378E+01 4.425493931E+00
 -1.255649881E-01 -9.993535685E-03 6.988718863E+04 9.955123905E+01 4.781295435E+00
 -1.124300031E-01 -9.130438854E-03 6.991458358E+04 9.922807136E+01 5.163352943E+00
 -1.004376281E-01 -8.342100064E-03 6.994598574E+04 9.885617181E+01 5.573679366E+00
 -8.949685065E-02 -7.622819573E-03 6.998199215E+04 9.842786010E+01 6.014517518E+00
 -7.952353966E-02 -6.967291317E-03 7.002329428E+04 9.793407862E+01 6.488378365E+00
 -7.043994220E-02 -6.370573762E-03 7.007069906E+04 9.736413298E+01 6.998083955E+00
 -6.217421643E-02 -5.828063924E-03 7.012514944E+04 9.670510339E+01 7.546845782E+00
 -5.465999795E-02 -5.335474141E-03 7.018776477E+04 9.594168428E+01 8.138338746E+00
 -4.783599730E-02 -4.888811205E-03 7.025982301E+04 9.505463632E+01 8.776752894E+00
 -4.164562633E-02 -4.484357788E-03 7.034276883E+04 9.402453298E+01 9.468143984E+00
 -3.604217141E-02 -4.078360819E-03 7.043759847E+04 9.282930669E+01 1.023251073E+01
 -3.099500172E-02 -3.531024650E-03 7.054534037E+04 9.144457462E+01 1.109814270E+01
 -2.643381015E-02 -3.037151161E-03 7.066904671E+04 8.982616685E+01 1.207493638E+01
 -2.231781760E-02 -2.592216931E-03 7.081250882E+04 8.789922818E+01 1.317552492E+01
 -1.860942691E-02 -2.192039983E-03 7.098009248E+04 8.559641264E+01 1.442687552E+01
 -1.527398577E-02 -1.832757962E-03 7.117566043E+04 8.277866516E+01 1.587769960E+01
 -1.227956666E-02 -1.510807355E-03 7.140849533E+04 7.934584291E+01 1.756868152E+01
 -9.596762725E-03 -1.222903706E-03 7.168016595E+04 7.487654024E+01 1.963555044E+01
 -7.198498462E-03 -9.660226904E-04 7.201708797E+04 6.933719087E+01 2.213343119E+01
 -5.059854036E-03 -7.373819835E-04 7.237928060E+04 6.108219404E+01 2.555143915E+01
 -3.157902368E-03 -5.344233492E-04 7.283460701E+04 5.115085054E+01 2.995154837E+01
 -1.471557876E-03 -3.547939748E-04 7.308983077E+04 3.585555391E+01 3.921177126E+01
 1.856476775E-05 -1.963187265E-04 7.305887640E+04 2.517360083E+01 4.615232887E+01
 -4.916318661E+00 -1.667794339E-01 6.969699011E+04 1.017538928E+02 1.496227707E-02
 -4.541401656E+00 -1.443711197E-01 6.969703392E+04 1.017531839E+02 2.313826421E-02
 -4.194139185E+00 -1.236063007E-01 6.969711164E+04 1.017518467E+02 4.199066364E-02
 -3.872545328E+00 -1.043671208E-01 6.969717013E+04 1.017505888E+02 6.444656820E-02
 -3.574773987E+00 -8.654403211E-02 6.969724092E+04 1.017492589E+02 8.885586028E-02
 -3.297469038E+00 -7.860637661E-02 6.969737411E+04 1.017474982E+02 1.149648681E-01
 -3.040465103E+00 -7.278884380E-02 6.969756215E+04 1.017452443E+02 1.428023701E-01
 -2.802628690E+00 -6.739647574E-02 6.969777599E+04 1.017427251E+02 1.724515503E-01
 -2.582572455E+00 -6.239865898E-02 6.969802003E+04 1.017398780E+02 2.040530743E-01
 -2.379007312E+00 -5.776694158E-02 6.969830247E+04 1.017366203E+02 2.377922730E-01
 -2.190735583E+00 -5.347488206E-02 6.969862647E+04 1.017329094E+02 2.738713240E-01
 -2.016644630E+00 -4.949790939E-02 6.969899695E+04 1.017286839E+02 3.125088760E-01
 -1.855700913E+00 -4.581319295E-02 6.969942083E+04 1.017238653E+02 3.539450627E-01
 -1.706944470E+00 -4.239952207E-02 6.969990564E+04 1.017183671E+02 3.984412806E-01
 -1.569483766E+00 -3.923719407E-02 6.970045986E+04 1.017120905E+02 4.462804966E-01
 -1.442490905E+00 -3.630791037E-02 6.970109340E+04 1.017049208E+02 4.977686605E-01
 -1.325197168E+00 -3.359468013E-02 6.970181776E+04 1.016967251E+02 5.532359054E-01
 -1.216888863E+00 -3.108173059E-02 6.970264615E+04 1.016873502E+02 6.130377352E-01
 -1.116903462E+00 -2.875442393E-02 6.970359388E+04 1.016766187E+02 6.775564000E-01
 -1.024626000E+00 -2.659917985E-02 6.970467864E+04 1.016643254E+02 7.472023488E-01
 -9.394857294E-01 -2.460340368E-02 6.970592088E+04 1.016502326E+02 8.224157269E-01
 -8.609530032E-01 -2.275541935E-02 6.970734427E+04 1.016340653E+02 9.036679248E-01
 -7.885363769E-01 -2.104440700E-02 6.970897615E+04 1.016155055E+02 9.914631811E-01
 -7.217799091E-01 -1.946034475E-02 6.971084812E+04 1.015941849E+02 1.086340223E+00
 -6.602606511E-01 -1.799395428E-02 6.971299670E+04 1.015696778E+02 1.188873947E+00
 -6.035863112E-01 -1.663664986E-02 6.971546403E+04 1.015414919E+02 1.299677103E+00
 -5.513930811E-01 -1.538049062E-02 6.971829875E+04 1.015090582E+02 1.419402042E+00
 -5.033436143E-01 -1.421813559E-02 6.972155695E+04 1.014717198E+02 1.548742743E+00
 -4.591251454E-01 -1.314280136E-02 6.972530325E+04 1.014287181E+02 1.688436447E+00
 -4.184477403E-01 -1.214822206E-02 6.972961208E+04 1.013791783E+02 1.839266181E+00
 -3.810426694E-01 -1.122861149E-02 6.973456897E+04 1.013220914E+02 2.002063630E+00
 -3.466608940E-01 -1.037862714E-02 6.974027231E+04 1.012562981E+02 2.177708540E+00
 -3.150716593E-01 -9.593336029E-03 6.974683521E+04 1.011804553E+02 2.367140947E+00
 -2.860611850E-01 -8.868182153E-03 6.975438719E+04 1.010930125E+02 2.571353455E+00
 -2.594314491E-01 -8.198955624E-03 6.976307674E+04 1.009922009E+02 2.791390704E+00
 -2.349990560E-01 -7.581763308E-03 6.977307484E+04 1.008759932E+02 3.028385202E+00
 -2.125941848E-01 -7.013001087E-03 6.978457746E+04 1.007420354E+02 3.283568364E+00
 -1.920596118E-01 -6.489327708E-03 6.979780790E+04 1.005876148E+02 3.558230086E+00
 -1.732498013E-01 -6.007640339E-03 6.981302181E+04 1.004096186E+02 3.853744825E+00
 -1.560300611E-01 -5.565051885E-03 6.983051285E+04 1.002044477E+02 4.171627748E+00
 -1.402757577E-01 -5.158870159E-03 6.985061768E+04 9.996794361E+01 4.513529135E+00
 -1.258715867E-01 -4.786578981E-03 6.987372211E+04 9.969529419E+01 4.881248980E+00
 -1.127108959E-01 -4.445821261E-03 6.990026915E+04 9.938091586E+01 5.276777506E+00
 -1.006950552E-01 -4.134384103E-03 6.993076897E+04 9.901829376E+01 5.702331088E+00
 -8.973287251E-02 -3.850185900E-03 6.996581168E+04 9.859980020E+01 6.160385849E+00
 -7.974005064E-02 -3.591265365E-03 7.000608064E+04 9.811643407E+01 6.653739246E+00
 -7.063868338E-02 -3.355772400E-03 7.005237304E+04 9.755757107E+01 7.185572041E+00
 -6.235678741E-02 -3.141960648E-03 7.010561886E+04 9.691037972E+01 7.759525391E+00
 -5.482786782E-02 -2.948181472E-03 7.016692243E+04 9.615967096E+01 8.379773240E+00
 -4.799051477E-02 -2.772879093E-03 7.023754386E+04 9.528629994E+01 9.051144959E+00
 -4.178802915E-02 -2.614586814E-03 7.031891297E+04 9.427089936E+01 9.780178772E+00
 -3.617224346E-02 -2.435732970E-03 7.041200941E+04 9.309179484E+01 1.058657296E+01
 -3.110764793E-02 -2.110219090E-03 7.051784717E+04 9.172434074E+01 1.149827141E+01
 -2.653070527E-02 -1.816804838E-03 7.063946286E+04 9.012466574E+01 1.252617932E+01
 -2.240049608E-02 -1.552760438E-03 7.078053015E+04 8.821817374E+01 1.368574386E+01
 -1.867929393E-02 -1.315557548E-03 7.094539636E+04 8.593934450E+01 1.500514098E+01
 -1.533232740E-02 -1.102857821E-03 7.113761836E+04 8.314777507E+01 1.653831136E+01
 -1.232755926E-02 -9.125017891E-04 7.136672713E+04 7.974838769E+01 1.832708719E+01
 -9.635481596E-03 -7.424980540E-04 7.163309111E+04 7.531667770E+01 2.051868389E+01
 -7.228925827E-03 -5.910127094E-04 7.196438095E+04 6.982038898E+01 2.317617715E+01
 -5.082886440E-03 -4.563589343E-04 7.231710650E+04 6.165397876E+01 2.679604236E+01
 -3.174357495E-03 -3.369862915E-04 7.276433287E+04 5.174461286E+01 3.140107517E+01
 -1.482180837E-03 -2.314686256E-04 7.300205089E+04 3.660896484E+01 4.091964655E+01
 1.309555987E-05 -1.384829409E-04 7.295434733E+04 2.612704490E+01 4.802902803E+01
 -4.919121367E+00 4.110405248E-02 6.969600836E+04 1.017577876E+02 1.529932542E-02
 -4.543656990E+00 4.530763180E-02 6.969601837E+04 1.017576229E+02 2.350339583E-02
 -4.195887554E+00 4.921050051E-02 6.969603515E+04 1.017573584E+02 4.241432470E-02
 -3.873824237E+00 5.283408201E-02 6.969604545E+04 1.017571296E+02 6.492993815E-02
 -3.575618238E+00 5.619830674E-02 6.969606795E+04 1.017568160E+02 8.939784743E-02
 -3.298202757E+00 5.266677687E-02 6.969613731E+04 1.017561538E+02 1.155822138E-01
 -3.041146056E+00 4.826892551E-02 6.969624933E+04 1.017550801E+02 1.435223237E-01
 -2.803260824E+00 4.420780992E-02 6.969638181E+04 1.017537712E+02 1.732930292E-01
 -2.583159431E+00 4.045889737E-02 6.969653801E+04 1.017521800E+02 2.050344227E-01
 -2.379552522E+00 3.699939911E-02 6.969672462E+04 1.017502403E+02 2.389351205E-01
 -2.191242175E+00 3.380814923E-02 6.969694448E+04 1.017479158E+02 2.751999986E-01
 -2.017115519E+00 3.086549151E-02 6.969720187E+04 1.017451549E+02 3.140503792E-01
 -1.856138804E+00 2.815317334E-02 6.969750284E+04 1.017418893E+02 3.557300767E-01
 -1.707351868E+00 2.565424669E-02 6.969785415E+04 1.017380423E+02 4.005051089E-01
 -1.569862993E+00 2.335297546E-02 6.969826349E+04 1.017335250E+02 4.486638181E-01
 -1.442844112E+00 2.123474894E-02 6.969873999E+04 1.017282324E+02 5.005184141E-01
 -1.325526348E+00 1.928600095E-02 6.969929428E+04 1.017220420E+02 5.564063110E-01
 -1.217195865E+00 1.749413442E-02 6.969993874E+04 1.017148105E+02 6.166914076E-01
 -1.117189996E+00 1.584745099E-02 6.970068779E+04 1.017063709E+02 6.817655988E-01
 -1.024893650E+00 1.433508536E-02 6.970155822E+04 1.016965286E+02 7.520504056E-01
 -9.397359625E-01 1.294694422E-02 6.970256957E+04 1.016850566E+02 8.279986652E-01
 -8.611871790E-01 1.167364933E-02 6.970374455E+04 1.016716906E+02 9.100962989E-01
 -7.887557538E-01 1.050648477E-02 6.970510956E+04 1.016561232E+02 9.988641460E-01
 -7.219856520E-01 9.437347854E-03 6.970669524E+04 1.016379972E+02 1.094859852E+00
 -6.604538386E-01 8.458703831E-03 6.970853710E+04 1.016168976E+02 1.198679825E+00
 -6.037679414E-01 7.563543964E-03 6.971067631E+04 1.015923428E+02 1.310961268E+00
 -5.515640778E-01 6.745346949E-03 6.971316052E+04 1.015637746E+02 1.432384312E+00
 -5.035048323E-01 5.998043511E-03 6.971604483E+04 1.015305462E+02 1.563674197E+00
 -4.592773753E-01 5.315984003E-03 6.971939285E+04 1.014919097E+02 1.705603577E+00
 -4.185917134E-01 4.693908907E-03 6.972327801E+04 1.014469998E+02 1.858995644E+00
 -3.811790618E-01 4.126922072E-03 6.972778485E+04 1.013948185E+02 2.024725879E+00
 -3.467903305E-01 3.610466537E-03 6.973301071E+04 1.013342125E+02 2.203726820E+00
 -3.151947170E-01 3.140302788E-03 6.973906762E+04 1.012638535E+02 2.396989957E+00
 -2.861783969E-01 2.712489251E-03 6.974608423E+04 1.011822095E+02 2.605574671E+00
 -2.595433068E-01 2.323364837E-03 6.975420762E+04 1.010875046E+02 2.830610055E+00
 -2.351060129E-01 1.969533296E-03 6.976360647E+04 1.009777135E+02 3.073288159E+00
 -2.126966589E-01 1.647849142E-03 6.977447523E+04 1.008505210E+02 3.334905372E+00
 -1.921579876E-01 1.355404918E-03 6.978703649E+04 1.007032295E+02 3.616886755E+00
 -1.733444326E-01 1.089519483E-03 6.980154351E+04 1.005327293E+02 3.920732361E+00
 -1.561212731E-01 8.477270932E-04 6.981828625E+04 1.003354502E+02 4.248053635E+00
 -1.403638488E-01 6.277669952E-04 6.983759792E+04 1.001072594E+02 4.600644222E+00
 -1.259568309E-01 4.275732986E-04 6.985986035E+04 9.984337433E+01 4.980472346E+00
 -1.127935441E-01 2.452649209E-04 6.988551124E+04 9.953825156E+01 5.389713094E+00
 -1.007753373E-01 7.913543351E-05 6.991505422E+04 9.918542886E+01 5.830796650E+00
 -8.981099887E-02 -7.235730215E-05 6.994907125E+04 9.877734230E+01 6.306451893E+00
 -7.981621372E-02 -2.106017650E-04 6.998823576E+04 9.830506632E+01 6.819773441E+00
 -7.071305919E-02 -3.368437075E-04 7.003333294E+04 9.775807263E+01 7.374287929E+00
 -6.242953689E-02 -4.521973111E-04 7.008527718E+04 9.712365054E+01 7.974059541E+00
 -5.489913814E-02 -5.576564367E-04 7.014515389E+04 9.638675906E+01 8.623792883E+00
 -4.806044057E-02 -6.541058013E-04 7.021420057E+04 9.552843875E+01 9.328984663E+00
 -4.185673361E-02 -7.423320639E-04 7.029382958E+04 9.452925504E+01 1.009678967E+01
 -3.623848582E-02 -7.909564405E-04 7.038503480E+04 9.336761774E+01 1.094663678E+01
 -3.116539667E-02 -6.875579598E-04 7.048882149E+04 9.201859295E+01 1.190562820E+01
 -2.658077549E-02 -5.948703151E-04 7.060818563E+04 9.043900423E+01 1.298551130E+01
 -2.244363465E-02 -5.119590476E-04 7.074664944E+04 8.855473153E+01 1.420479845E+01
 -1.871618492E-02 -4.379510207E-04 7.090856774E+04 8.630190991E+01 1.559250960E+01
 -1.536359702E-02 -3.720333894E-04 7.109717505E+04 8.353891582E+01 1.720660752E+01
 -1.235378043E-02 -3.134521663E-04 7.132228036E+04 8.017532929E+01 1.909018915E+01
 -9.657178161E-03 -2.615103903E-04 7.158301588E+04 7.578656748E+01 2.140059405E+01
 -7.246576451E-03 -2.155658965E-04 7.190821844E+04 7.034052841E+01 2.420994557E+01
 -5.096928167E-03 -1.750286398E-04 7.225133228E+04 6.227115497E+01 2.802169051E+01
 -3.185189056E-03 -1.393572198E-04 7.269002193E+04 5.239012546E+01 3.282859713E+01
 -1.490165690E-03 -1.080532635E-04 7.290950488E+04 3.742607726E+01 4.261731773E+01
 7.626351982E-06 -8.064715534E-05 7.284486237E+04 2.715537562E+01 4.990388361E+01
 -4.913313371E+00 2.489252871E-01 6.969502402E+04 1.017616959E+02 1.536212298E-02
 -4.537961737E+00 2.349286006E-01 6.969499994E+04 1.017620797E+02 2.358078374E-02
 -4.190296758E+00 2.219736670E-01 6.969495513E+04 1.017628970E+02 4.253268695E-02
 -3.868330202E+00 2.099855213E-01 6.969491668E+04 1.017637042E+02 6.511252066E-02
 -3.570213820E+00 1.988945042E-01 6.969489062E+04 1.017644110E+02 8.966097187E-02
 -3.293173091E+00 1.838964451E-01 6.969489580E+04 1.017648532E+02 1.159385774E-01
 -3.036512849E+00 1.692864016E-01 6.969493117E+04 1.017649680E+02 1.439836772E-01
 -2.798994519E+00 1.557747608E-01 6.969498162E+04 1.017648783E+02 1.738678735E-01
 -2.579232607E+00 1.432818604E-01 6.969504932E+04 1.017645520E+02 2.057341571E-01
 -2.375939746E+00 1.317336861E-01 6.969513928E+04 1.017639405E+02 2.397751734E-01
 -2.187919860E+00 1.210614794E-01 6.969525406E+04 1.017630140E+02 2.761994769E-01
 -2.014061793E+00 1.112013700E-01 6.969539729E+04 1.017617299E+02 3.152324203E-01
 -1.853333389E+00 1.020940351E-01 6.969557411E+04 1.017600313E+02 3.571223191E-01
 -1.704775966E+00 9.368437975E-02 6.969579047E+04 1.017578513E+02 4.021401862E-01
 -1.567499181E+00 8.592124025E-02 6.969605329E+04 1.017551109E+02 4.505799728E-01
 -1.440676243E+00 7.875710708E-02 6.969637084E+04 1.017517156E+02 5.027602615E-01
 -1.323539462E+00 7.214786684E-02 6.969675287E+04 1.017475531E+02 5.590257693E-01
 -1.215376102E+00 6.605256184E-02 6.969721087E+04 1.017424910E+02 6.197487794E-01
 -1.115524517E+00 6.043316606E-02 6.969775836E+04 1.017363731E+02 6.853308100E-01
 -1.023370567E+00 5.525437667E-02 6.969841117E+04 1.017290157E+02 7.562044227E-01
 -9.383442664E-01 5.048341979E-02 6.969918786E+04 1.017202030E+02 8.328351066E-01
 -8.599166786E-01 4.608986985E-02 6.970011015E+04 1.017096823E+02 9.157232557E-01
 -7.875970160E-01 4.204548155E-02 6.970120341E+04 1.016971577E+02 1.005406234E+00
 -7.209299476E-01 3.832403358E-02 6.970249722E+04 1.016822835E+02 1.102460527E+00
 -6.594930910E-01 3.490118356E-02 6.970402605E+04 1.016646564E+02 1.207503979E+00
 -6.028946797E-01 3.175433326E-02 6.970583000E+04 1.016438064E+02 1.321198122E+00
 -5.507713925E-01 2.886250371E-02 6.970795563E+04 1.016191869E+02 1.444250594E+00
 -5.027863345E-01 2.620621945E-02 6.971045693E+04 1.015901628E+02 1.577417727E+00
 -4.586271590E-01 2.376740137E-02 6.971339643E+04 1.015559971E+02 1.721507332E+00
 -4.180043199E-01 2.152926776E-02 6.971684642E+04 1.015158363E+02 1.877381635E+00
 -3.806494471E-01 1.947624289E-02 6.972089031E+04 1.014686927E+02 2.045960753E+00
 -3.463138348E-01 1.759387270E-02 6.972562431E+04 1.014134247E+02 2.228225731E+00
 -3.147670362E-01 1.586874718E-02 6.973115913E+04 1.013487137E+02 2.425224844E+00
 -2.857955566E-01 1.428842889E-02 6.973762210E+04 1.012730414E+02 2.638078055E+00
 -2.592016377E-01 1.284138714E-02 6.974515931E+04 1.011846558E+02 2.867983213E+00