TITLE     = "fluent22.1.0  build-id: 10213"
VARIABLES = "X"
"Y"
"Pressure"
"X Velocity"
"Y Velocity"
DATASETAUXDATA Common.DensityVar="23"
DATASETAUXDATA Common.PressureVar="3"
DATASETAUXDATA Common.TemperatureVar="12"
DATASETAUXDATA Common.TurbulentDynamicViscosityVar="17"
DATASETAUXDATA Common.UVar="5"
DATASETAUXDATA Common.VectorVarsAreVelocity="TRUE"
DATASETAUXDATA Common.ViscosityVar="25"
DATASETAUXDATA Common.VVar="7"
ZONE T="fluid"
 STRANDID=1, SOLUTIONTIME=1.045
 Nodes=10240, Elements=10080, ZONETYPE=FEQuadrilateral
 DATAPACKING=POINT
 DT=(DOUBLE DOUBLE DOUBLE DOUBLE DOUBLE )
 -4.856290020E+00 -7.872354469E-01 6.969997316E+04 1.017422337E+02 1.268025339E-02
 -4.486973272E+00 -7.104634638E-01 6.970012173E+04 1.017398515E+02 2.085445223E-02
 -4.884823481E+00 -5.813004056E-01 6.969899811E+04 1.017460095E+02 1.371176699E-02
 -4.512986746E+00 -5.225827731E-01 6.969911013E+04 1.017441922E+02 2.192537695E-02
 -4.144897800E+00 -6.393443823E-01 6.970038429E+04 1.017352417E+02 3.976346229E-02
 -4.168577220E+00 -4.681864973E-01 6.969930893E+04 1.017406772E+02 4.089627212E-02
 -3.828107384E+00 -5.734725774E-01 6.970058826E+04 1.017308413E+02 6.234416491E-02
 -3.849625319E+00 -4.178015008E-01 6.969946264E+04 1.017373234E+02 6.352284347E-02
 -3.534783518E+00 -5.124708581E-01 6.970080871E+04 1.017263790E+02 8.685574652E-02
 -3.554300128E+00 -3.711394949E-01 6.969963098E+04 1.017339123E+02 8.810052284E-02
 -3.260719368E+00 -4.703128975E-01 6.970113565E+04 1.017212692E+02 1.129387184E-01
 -3.278675589E+00 -3.403383674E-01 6.969989286E+04 1.017299182E+02 1.143079320E-01
 -3.006567202E+00 -4.340180430E-01 6.970155068E+04 1.017154541E+02 1.406200713E-01
 -3.023128251E+00 -3.141570721E-01 6.970023327E+04 1.017252804E+02 1.421678914E-01
 -2.771369799E+00 -4.004212987E-01 6.970200836E+04 1.017092753E+02 1.700660338E-01
 -2.786639746E+00 -2.899195944E-01 6.970061059E+04 1.017203157E+02 1.718174995E-01
 -2.553755217E+00 -3.693275408E-01 6.970251673E+04 1.017026269E+02 2.014261368E-01
 -2.567830599E+00 -2.674854051E-01 6.970103179E+04 1.017149296E+02 2.034041702E-01
 -2.352448683E+00 -3.405554576E-01 6.970308699E+04 1.016953905E+02 2.348724508E-01
 -2.365419035E+00 -2.467239200E-01 6.970150746E+04 1.017090111E+02 2.371046194E-01
 -2.166265818E+00 -3.139365856E-01 6.970372346E+04 1.016875008E+02 2.705999590E-01
 -2.178214171E+00 -2.275138074E-01 6.970204136E+04 1.017025028E+02 2.731170358E-01
 -1.994106333E+00 -2.893144138E-01 6.970443343E+04 1.016788653E+02 3.088208636E-01
 -2.005109679E+00 -2.097423419E-01 6.970263992E+04 1.016953228E+02 3.116568830E-01
 -1.834948165E+00 -2.665435507E-01 6.970522611E+04 1.016693758E+02 3.497659299E-01
 -1.845077882E+00 -1.933048054E-01 6.970331169E+04 1.016873715E+02 3.529587060E-01
 -1.687842006E+00 -2.454889482E-01 6.970611116E+04 1.016589177E+02 3.936850619E-01
 -1.697164260E+00 -1.781039281E-01 6.970406563E+04 1.016785432E+02 3.972769896E-01
 -1.551906217E+00 -2.260251798E-01 6.970709931E+04 1.016473633E+02 4.408482925E-01
 -1.560482335E+00 -1.640493695E-01 6.970491175E+04 1.016687198E+02 4.448869450E-01
 -1.426322093E+00 -2.080357688E-01 6.970820276E+04 1.016345686E+02 4.915463204E-01
 -1.434208905E+00 -1.510572346E-01 6.970586155E+04 1.016577667E+02 4.960853632E-01
 -1.310329447E+00 -1.914125629E-01 6.970943532E+04 1.016203717E+02 5.460913042E-01
 -1.317579610E+00 -1.390496245E-01 6.970692809E+04 1.016455315E+02 5.511915075E-01
 -1.203222508E+00 -1.760551528E-01 6.971081259E+04 1.016045901E+02 6.048178267E-01
 -1.209884805E+00 -1.279542178E-01 6.970812623E+04 1.016318409E+02 6.105481492E-01
 -1.104346100E+00 -1.618703307E-01 6.971235227E+04 1.015870173E+02 6.680838567E-01
 -1.110465718E+00 -1.177038816E-01 6.970947294E+04 1.016164977E+02 6.745226671E-01
 -1.013092083E+00 -1.487715865E-01 6.971407452E+04 1.015674186E+02 7.362717147E-01
 -1.018710869E+00 -1.082363090E-01 6.971098760E+04 1.015992764E+02 7.435081606E-01
 -9.288960432E-01 -1.366786392E-01 6.971600228E+04 1.015455272E+02 8.097890943E-01
 -9.340527478E-01 -9.949368183E-02 6.971269241E+04 1.015799191E+02 8.179245885E-01
 -8.512342118E-01 -1.255170003E-01 6.971816168E+04 1.015210388E+02 8.890699823E-01
 -8.559647090E-01 -9.142235737E-02 6.971461275E+04 1.015581305E+02 8.982199246E-01
 -7.796205972E-01 -1.152175681E-01 6.972058259E+04 1.014936065E+02 9.745755478E-01
 -7.839580939E-01 -8.397257599E-02 6.971677772E+04 1.015335722E+02 9.848713591E-01
 -7.136043175E-01 -1.057162496E-01 6.972329911E+04 1.014628335E+02 1.066795035E+00
 -7.175795457E-01 -7.709818937E-02 6.971922068E+04 1.015058559E+02 1.078386468E+00
 -6.527671172E-01 -9.695360812E-02 6.972635019E+04 1.014282663E+02 1.166246705E+00
 -6.564085132E-01 -7.075640723E-02 6.972197989E+04 1.014745359E+02 1.179304301E+00
 -5.967210578E-01 -8.887453634E-02 6.972978043E+04 1.013893854E+02 1.273479030E+00
 -6.000549285E-01 -6.490756148E-02 6.972509922E+04 1.014391002E+02 1.288196328E+00
 -5.451063684E-01 -8.142795035E-02 6.973364084E+04 1.013455954E+02 1.389070957E+00
 -5.481570456E-01 -5.951488631E-02 6.972862901E+04 1.013989613E+02 1.405667868E+00
 -4.975894462E-01 -7.456650538E-02 6.973798977E+04 1.012962162E+02 1.513631404E+00
 -5.003794309E-01 -5.454431320E-02 6.973262698E+04 1.013534436E+02 1.532359366E+00
 -4.538609972E-01 -6.824633056E-02 6.974289414E+04 1.012404649E+02 1.647804435E+00
 -4.564110921E-01 -4.996427962E-02 6.973715942E+04 1.013017710E+02 1.668946302E+00
 -4.136343058E-01 -6.242678155E-02 6.974843044E+04 1.011774396E+02 1.792265261E+00
 -4.159637396E-01 -4.574555047E-02 6.974230240E+04 1.012430531E+02 1.816142766E+00
 -3.766436258E-01 -5.707020974E-02 6.975468602E+04 1.011061085E+02 1.947718149E+00
 -3.787701681E-01 -4.186105130E-02 6.974814281E+04 1.011762588E+02 1.974701846E+00
 -3.426426841E-01 -5.214174685E-02 6.976176163E+04 1.010252995E+02 2.114904275E+00
 -3.445827520E-01 -3.828571245E-02 6.975478042E+04 1.011002106E+02 2.145411627E+00
 -3.114032886E-01 -4.760910381E-02 6.976977300E+04 1.009336537E+02 2.294613260E+00
 -3.131720459E-01 -3.499632329E-02 6.976233016E+04 1.010135587E+02 2.329103752E+00
 -2.827140344E-01 -4.344238288E-02 6.977885185E+04 1.008296044E+02 2.487673042E+00
 -2.843254836E-01 -3.197139593E-02 6.977092367E+04 1.009147472E+02 2.526664310E+00
 -2.563790999E-01 -3.961390229E-02 6.978914891E+04 1.007113630E+02 2.694938591E+00
 -2.578461675E-01 -2.919103779E-02 6.978071156E+04 1.008019857E+02 2.739036002E+00
 -2.322171286E-01 -3.609803242E-02 6.980083735E+04 1.005768674E+02 2.917312591E+00
 -2.335517442E-01 -2.663683243E-02 6.979186612E+04 1.006732130E+02 2.967199756E+00
 -2.100601879E-01 -3.287104300E-02 6.981411581E+04 1.004237425E+02 3.155755898E+00
 -2.112733582E-01 -2.429172827E-02 6.980458477E+04 1.005260628E+02 3.212187907E+00
 -1.897528030E-01 -2.991096063E-02 6.982921184E+04 1.002492553E+02 3.411285948E+00
 -1.908546796E-01 -2.213993469E-02 6.981909406E+04 1.003578058E+02 3.475114707E+00
 -1.711510576E-01 -2.719743613E-02 6.984638618E+04 1.000502552E+02 3.684982458E+00
 -1.721510008E-01 -2.016682538E-02 6.983565373E+04 1.001652957E+02 3.757171967E+00
 -1.541217585E-01 -2.471162126E-02 6.986593797E+04 9.982310498E+01 3.977999741E+00
 -1.550283957E-01 -1.835884843E-02 6.985456137E+04 9.994490330E+01 4.059634655E+00
 -1.385416595E-01 -2.243605444E-02 6.988821070E+04 9.956359733E+01 4.291581849E+00
 -1.393629403E-01 -1.670344308E-02 6.987615851E+04 9.969243136E+01 4.383883149E+00
 -1.242967397E-01 -2.035455499E-02 6.991359892E+04 9.926685616E+01 4.627070246E+00
 -1.250399863E-01 -1.518896282E-02 6.990083734E+04 9.940301727E+01 4.731414355E+00
 -1.112815337E-01 -1.845212554E-02 6.994255656E+04 9.892721868E+01 4.985927004E+00
 -1.119534883E-01 -1.380460460E-02 6.992904877E+04 9.907101534E+01 5.103867527E+00
 -9.939850901E-02 -1.671486233E-02 6.997560728E+04 9.853807292E+01 5.369756362E+00
 -1.000053772E-01 -1.254034393E-02 6.996131278E+04 9.868983209E+01 5.503051288E+00
 -8.855748775E-02 -1.512987286E-02 7.001335808E+04 9.809166859E+01 5.780326338E+00
 -8.910497932E-02 -1.138687560E-02 6.999823174E+04 9.825174311E+01 5.930969681E+00
 -7.867510981E-02 -1.368520053E-02 7.005651379E+04 9.757884240E+01 6.219588305E+00
 -7.916847628E-02 -1.033555967E-02 7.004050358E+04 9.774763813E+01 6.389844584E+00
 -6.967433433E-02 -1.236975574E-02 7.010589814E+04 9.698877309E+01 6.689667195E+00
 -7.011840398E-02 -9.378372448E-03 7.008894347E+04 9.716675551E+01 6.882152070E+00
 -6.148397686E-02 -1.117325323E-02 7.016246985E+04 9.630844905E+01 7.192871956E+00
 -6.188318709E-02 -8.507862088E-03 7.014450455E+04 9.649609504E+01 7.410662694E+00
 -5.403827976E-02 -1.008615501E-02 7.022736657E+04 9.552246708E+01 7.731858242E+00
 -5.439670712E-02 -7.717108381E-03 7.020831808E+04 9.572026187E+01 7.978500513E+00
 -4.727651335E-02 -9.099617452E-03 7.030189066E+04 9.461140780E+01 8.309510437E+00
 -4.759790137E-02 -6.999685944E-03 7.028167569E+04 9.481989043E+01 8.589099947E+00
 -4.114260586E-02 -8.205443811E-03 7.038751715E+04 9.355572477E+01 8.930897271E+00
 -4.143039077E-02 -6.349631094E-03 7.036603132E+04 9.377560514E+01 9.248000144E+00
 -3.559301484E-02 -7.347564239E-03 7.048526721E+04 9.233296712E+01 9.617830110E+00
 -3.584900348E-02 -5.717021628E-03 7.046236651E+04 9.256523395E+01 9.977208714E+00
 -3.060713263E-02 -6.358740492E-03 7.059620885E+04 9.091850782E+01 1.039962567E+01
 -3.082807541E-02 -4.948345372E-03 7.057172084E+04 9.116435376E+01 1.080553803E+01
 -2.610133767E-02 -5.465918324E-03 7.072350926E+04 8.926685401E+01 1.128336643E+01
 -2.629060495E-02 -4.254463468E-03 7.069721413E+04 8.952814874E+01 1.174024103E+01
 -2.203534432E-02 -4.661000456E-03 7.087109685E+04 8.730293739E+01 1.227567408E+01
 -2.219602404E-02 -3.629060338E-03 7.084271763E+04 8.758148053E+01 1.279075208E+01
 -1.837201024E-02 -3.936510035E-03 7.104336945E+04 8.495640234E+01 1.340355856E+01
 -1.850693001E-02 -3.066301598E-03 7.101261530E+04 8.525530787E+01 1.398422100E+01
 -1.507710220E-02 -3.285548137E-03 7.124456552E+04 8.209112657E+01 1.470657496E+01
 -1.518884973E-02 -2.560801941E-03 7.121098091E+04 8.241155834E+01 1.536468663E+01
 -1.211907877E-02 -2.701753800E-03 7.148359992E+04 7.859858498E+01 1.623089278E+01
 -1.221002074E-02 -2.107594758E-03 7.144688375E+04 7.894622958E+01 1.697575785E+01
 -9.468888734E-03 -2.179266402E-03 7.176372031E+04 7.407028168E+01 1.808444710E+01
 -9.541188230E-03 -1.702103436E-03 7.172273436E+04 7.444186318E+01 1.894232872E+01
 -7.099784076E-03 -1.712690135E-03 7.210893797E+04 6.845961280E+01 2.031415885E+01
 -7.155416697E-03 -1.340114124E-03 7.206372117E+04 6.886297197E+01 2.132151181E+01
 -4.987146467E-03 -1.297060453E-03 7.248645318E+04 6.005431418E+01 2.337346872E+01
 -5.027915206E-03 -1.017749886E-03 7.243283048E+04 6.052422411E+01 2.458305301E+01
 -3.108326308E-03 -9.278118056E-04 7.295365669E+04 5.007969764E+01 2.741905466E+01
 -3.135875314E-03 -7.314455974E-04 7.289338172E+04 5.056954017E+01 2.882663555E+01
 -1.442493305E-03 -6.007457589E-04 7.323281441E+04 3.443383605E+01 3.632466614E+01
 -1.458320591E-03 -4.779226390E-04 7.315714000E+04 3.507829655E+01 3.795701934E+01
 2.950318352E-05 -3.119902977E-04 7.322634241E+04 2.334340726E+01 4.304462384E+01
 2.403397564E-05 -2.541545121E-04 7.313503720E+04 2.416411680E+01 4.482607169E+01
 -4.904860300E+00 -3.743658139E-01 6.969800981E+04 1.017498739E+02 1.457417752E-02
 -4.531154963E+00 -3.337794775E-01 6.969808774E+04 1.017486057E+02 2.281916737E-02
 -4.185014714E+00 -2.961772361E-01 6.969822642E+04 1.017461690E+02 4.183511737E-02
 -3.864460060E+00 -2.613449986E-01 6.969833295E+04 1.017438578E+02 6.448562584E-02
 -3.567650880E+00 -2.290837380E-01 6.969845251E+04 1.017414888E+02 8.909556201E-02
 -3.290944664E+00 -2.096966170E-01 6.969865036E+04 1.017386096E+02 1.153894889E-01
 -3.034445438E+00 -1.936810862E-01 6.969891535E+04 1.017351566E+02 1.433955192E-01
 -2.797076051E+00 -1.788511823E-01 6.969921177E+04 1.017314057E+02 1.732173454E-01
 -2.577451889E+00 -1.651212530E-01 6.969954538E+04 1.017272772E+02 2.049978658E-01
 -2.374286401E+00 -1.524117047E-01 6.969992572E+04 1.017226733E+02 2.389189817E-01
 -2.186384266E+00 -1.406485807E-01 6.970035621E+04 1.017175443E+02 2.751811632E-01
 -2.012635033E+00 -1.297631678E-01 6.970084251E+04 1.017118189E+02 3.140019079E-01
 -1.852007196E+00 -1.196916312E-01 6.970139236E+04 1.017054080E+02 3.556195767E-01
 -1.703542679E+00 -1.103746746E-01 6.970201404E+04 1.016982154E+02 4.002934135E-01
 -1.566351700E+00 -1.017572241E-01 6.970271680E+04 1.016901326E+02 4.483040021E-01
 -1.439607991E+00 -9.378813476E-02 6.970351138E+04 1.016810347E+02 4.999543933E-01
 -1.322544345E+00 -8.641991673E-02 6.970441006E+04 1.016707788E+02 5.555711239E-01
 -1.214448473E+00 -7.960848140E-02 6.970542692E+04 1.016592012E+02 6.155053219E-01
 -1.114659149E+00 -7.331290480E-02 6.970657813E+04 1.016461142E+02 6.801339508E-01
 -1.022562616E+00 -6.749520758E-02 6.970788226E+04 1.016313019E+02 7.498611026E-01
 -9.375892479E-01 -6.212015033E-02 6.970936066E+04 1.016145159E+02 8.251193403E-01
 -8.592104399E-01 -5.715504304E-02 6.971103791E+04 1.015954706E+02 9.063710731E-01
 -7.869357126E-01 -5.256956770E-02 6.971294226E+04 1.015738368E+02 9.941099345E-01
 -7.203100208E-01 -4.833561307E-02 6.971510625E+04 1.015492356E+02 1.088862168E+00
 -6.589112470E-01 -4.442712076E-02 6.971756729E+04 1.015212304E+02 1.191188069E+00
 -6.023478705E-01 -4.081994160E-02 6.972036844E+04 1.014893182E+02 1.301683473E+00
 -5.502567983E-01 -3.749170175E-02 6.972355922E+04 1.014529198E+02 1.420981305E+00
 -5.023013470E-01 -3.442167755E-02 6.972719660E+04 1.014113679E+02 1.549752469E+00
 -4.581693662E-01 -3.159067859E-02 6.973134604E+04 1.013638939E+02 1.688708338E+00
 -4.175714923E-01 -2.898093835E-02 6.973608280E+04 1.013096132E+02 1.838602932E+00
 -3.802395244E-01 -2.657601169E-02 6.974149324E+04 1.012475106E+02 2.000231954E+00
 -3.459249141E-01 -2.436067885E-02 6.974767650E+04 1.011764091E+02 2.174441286E+00
 -3.143973610E-01 -2.232085542E-02 6.975474638E+04 1.010949568E+02 2.362120257E+00
 -2.854435062E-01 -2.044350779E-02 6.976283328E+04 1.010016051E+02 2.564205017E+00
 -2.588657179E-01 -1.871657391E-02 6.977208706E+04 1.008945796E+02 2.781699982E+00
 -2.344809625E-01 -1.712888897E-02 6.978267980E+04 1.007718276E+02 3.015690585E+00
 -2.121197543E-01 -1.567011576E-02 6.979480773E+04 1.006309807E+02 3.267311309E+00
 -1.916251801E-01 -1.433067966E-02 6.980869537E+04 1.004693257E+02 3.537757809E+00
 -1.728519916E-01 -1.310170792E-02 6.982460064E+04 1.002837269E+02 3.828338316E+00
 -1.556657630E-01 -1.197497338E-02 6.984281933E+04 1.000705660E+02 4.140465509E+00
 -1.399421069E-01 -1.094284236E-02 6.986369030E+04 9.982566210E+01 4.475668922E+00
 -1.255659472E-01 -9.998226694E-03 6.988760251E+04 9.954417373E+01 4.835617949E+00
 -1.124308419E-01 -9.134539833E-03 6.991500288E+04 9.922048048E+01 5.222153089E+00
 -1.004383560E-01 -8.345656924E-03 6.994640645E+04 9.884801900E+01 5.637317179E+00
 -8.949747698E-02 -7.625878678E-03 6.998240955E+04 9.841910350E+01 6.083387716E+00
 -7.952407379E-02 -6.969898859E-03 7.002370258E+04 9.792467061E+01 6.562915265E+00
 -7.044039336E-02 -6.372775164E-03 7.007109132E+04 9.735401780E+01 7.078768850E+00
 -6.217459357E-02 -5.829903307E-03 7.012551745E+04 9.669421224E+01 7.634216132E+00
 -5.466030971E-02 -5.336993850E-03 7.018809889E+04 9.592993521E+01 8.232998892E+00
 -4.783625185E-02 -4.890051403E-03 7.026011131E+04 9.504192301E+01 8.879388081E+00
 -4.164583135E-02 -4.485356138E-03 7.034299581E+04 9.401076334E+01 9.579539914E+00
 -3.604233398E-02 -4.079152179E-03 7.043773573E+04 9.281443014E+01 1.035357357E+01
 -3.099512819E-02 -3.531640806E-03 7.054533916E+04 9.142863889E+01 1.122996505E+01
 -2.643390656E-02 -3.037621274E-03 7.066885530E+04 8.980922759E+01 1.221882377E+01
 -2.231788934E-02 -2.592567112E-03 7.081206808E+04 8.788106567E+01 1.333300688E+01
 -1.860947876E-02 -2.192293346E-03 7.097933433E+04 8.557702067E+01 1.459986219E+01
 -1.527402190E-02 -1.832934729E-03 7.117445977E+04 8.275739492E+01 1.606861111E+01
 -1.227959067E-02 -1.510925002E-03 7.140674057E+04 7.932305114E+01 1.778099975E+01
 -9.596777697E-03 -1.222977143E-03 7.167752959E+04 7.485022135E+01 1.987283099E+01
 -7.198506966E-03 -9.660644639E-04 7.201334551E+04 6.930865429E+01 2.240662591E+01
 -5.059858202E-03 -7.374024815E-04 7.237328436E+04 6.105307642E+01 2.586735787E+01
 -3.157903921E-03 -5.344310014E-04 7.282630075E+04 5.111723959E+01 3.030959860E+01
 -1.471558167E-03 -3.547954102E-04 7.307318700E+04 3.577941118E+01 3.968231464E+01
 1.856476775E-05 -1.963187265E-04 7.303446196E+04 2.505768713E+01 4.671323246E+01
 -4.916318661E+00 -1.667794339E-01 6.969702016E+04 1.017537844E+02 1.512862273E-02
 -4.541402376E+00 -1.443746901E-01 6.969706394E+04 1.017530690E+02 2.339571774E-02
 -4.194140541E+00 -1.236130295E-01 6.969714142E+04 1.017517202E+02 4.245830720E-02
 -3.872547243E+00 -1.043766281E-01 6.969719941E+04 1.017504518E+02 6.516489872E-02
 -3.574776390E+00 -8.655596829E-02 6.969726985E+04 1.017491110E+02 8.984721900E-02
 -3.297471869E+00 -7.862043370E-02 6.969740339E+04 1.017473351E+02 1.162489239E-01
 -3.040468301E+00 -7.280472754E-02 6.969759237E+04 1.017450614E+02 1.443991019E-01
 -2.802632201E+00 -6.741391295E-02 6.969780742E+04 1.017425204E+02 1.743817141E-01
 -2.582576229E+00 -6.241739881E-02 6.969805297E+04 1.017396488E+02 2.063387841E-01
 -2.379011301E+00 -5.778675378E-02 6.969833728E+04 1.017363637E+02 2.404574970E-01
 -2.190739746E+00 -5.349555545E-02 6.969866349E+04 1.017326220E+02 2.769420967E-01
 -2.016648927E+00 -4.951925034E-02 6.969903654E+04 1.017283624E+02 3.160135087E-01
 -1.855705310E+00 -4.583502407E-02 6.969946335E+04 1.017235058E+02 3.579144074E-01
 -1.706948933E+00 -4.242168093E-02 6.969995145E+04 1.017179655E+02 4.029089880E-01
 -1.569488265E+00 -3.925953207E-02 6.970050934E+04 1.017116425E+02 4.512832722E-01
 -1.442495413E+00 -3.633029173E-02 6.970114696E+04 1.017044216E+02 5.033465322E-01
 -1.325201660E+00 -3.361698095E-02 6.970187580E+04 1.016961695E+02 5.594325026E-01
 -1.216893317E+00 -3.110383802E-02 6.970270910E+04 1.016867325E+02 6.199005809E-01
 -1.116907857E+00 -2.877623544E-02 6.970366220E+04 1.016759328E+02 6.851372188E-01
 -1.024630317E+00 -2.662060260E-02 6.970475279E+04 1.016635645E+02 7.555573922E-01
 -9.394899508E-01 -2.462435396E-02 6.970600137E+04 1.016493895E+02 8.316061157E-01
 -8.609571147E-01 -2.277582209E-02 6.970743160E+04 1.016331323E+02 9.137600115E-01
 -7.885403651E-01 -2.106419538E-02 6.970907086E+04 1.016144740E+02 1.002528929E+00
 -7.217837621E-01 -1.947945985E-02 6.971095076E+04 1.015930458E+02 1.098457609E+00
 -6.602643585E-01 -1.801234479E-02 6.971310780E+04 1.015684213E+02 1.202127399E+00
 -6.035898642E-01 -1.665427187E-02 6.971558415E+04 1.015401075E+02 1.314157951E+00
 -5.513964722E-01 -1.539730739E-02 6.971842842E+04 1.015075349E+02 1.435208992E+00
 -5.033468376E-01 -1.423411740E-02 6.972169667E+04 1.014700456E+02 1.565982287E+00
 -4.591281962E-01 -1.315792534E-02 6.972545348E+04 1.014268804E+02 1.707223642E+00
 -4.184506153E-01 -1.216247208E-02 6.972977321E+04 1.013771641E+02 1.859724942E+00
 -3.810453667E-01 -1.124197799E-02 6.973474131E+04 1.013198869E+02 2.024327372E+00
 -3.466634130E-01 -1.039110696E-02 6.974045612E+04 1.012538874E+02 2.201921084E+00
 -3.150740004E-01 -9.604932228E-03 6.974703065E+04 1.011778245E+02 2.393455709E+00
 -2.860633501E-01 -8.878903789E-03 6.975459422E+04 1.010901464E+02 2.599938733E+00
 -2.594334411E-01 -8.208817474E-03 6.976329493E+04 1.009890794E+02 2.822426939E+00
 -2.350008789E-01 -7.590785556E-03 6.977330354E+04 1.008726000E+02 3.062060042E+00
 -2.125958437E-01 -7.021208941E-03 6.978481597E+04 1.007383534E+02 3.320088825E+00
 -1.920611126E-01 -6.496750970E-03 6.979805519E+04 1.005836240E+02 3.597822046E+00
 -1.732511507E-01 -6.014312916E-03 6.981327626E+04 1.004052999E+02 3.896647752E+00
 -1.560312667E-01 -5.571011246E-03 6.983077239E+04 1.001997802E+02 4.218100345E+00
 -1.402768275E-01 -5.164156753E-03 6.985087977E+04 9.996290480E+01 4.563851827E+00
 -1.258725294E-01 -4.791235612E-03 6.987398356E+04 9.968985986E+01 4.935725559E+00
 -1.127117204E-01 -4.449892451E-03 6.990052601E+04 9.937505983E+01 5.335738030E+00
 -1.006957707E-01 -4.137915438E-03 6.993101652E+04 9.901198623E+01 5.766135562E+00
 -8.973348818E-02 -3.853223392E-03 6.996604437E+04 9.859300664E+01 6.229428411E+00
 -7.974057574E-02 -3.593854830E-03 7.000629183E+04 9.810911415E+01 6.728455819E+00
 -7.063912698E-02 -3.357958880E-03 7.005255471E+04 9.754967798E+01 7.266446246E+00
 -6.235715832E-02 -3.143787884E-03 7.010576148E+04 9.690185600E+01 7.847095327E+00
 -5.482817450E-02 -2.949691436E-03 7.016701481E+04 9.615044781E+01 8.474644548E+00
 -4.799076525E-02 -2.774111598E-03 7.023757224E+04 9.527628671E+01 9.154004091E+00
 -4.178823097E-02 -2.615579191E-03 7.031885981E+04 9.426001850E+01 9.891811459E+00
 -3.617240357E-02 -2.436519817E-03 7.041184447E+04 9.308001379E+01 1.070788486E+01
 -3.110777259E-02 -2.110832047E-03 7.051752020E+04 9.171171149E+01 1.163035816E+01
 -2.653080039E-02 -1.817272758E-03 7.063892060E+04 9.011125481E+01 1.267034323E+01
 -2.240056693E-02 -1.553109178E-03 7.077970876E+04 8.820379558E+01 1.384356538E+01
 -1.867934519E-02 -1.315810014E-03 7.094422254E+04 8.592403811E+01 1.517858448E+01
 -1.533236316E-02 -1.103034067E-03 7.113595996E+04 8.313098955E+01 1.672982916E+01
 -1.232758306E-02 -9.126191628E-04 7.136446191E+04 7.973048601E+01 1.854021120E+01
 -9.635496449E-03 -7.425713710E-04 7.162987711E+04 7.529599558E+01 2.075712968E+01
 -7.228934275E-03 -5.910544465E-04 7.195994291E+04 6.979798918E+01 2.345029746E+01
 -5.082890586E-03 -4.563794333E-04 7.231037003E+04 6.163276874E+01 2.711287709E+01
 -3.174359043E-03 -3.369939540E-04 7.275521432E+04 5.171761323E+01 3.176166514E+01
 -1.482181128E-03 -2.314700657E-04 7.298423945E+04 3.654247316E+01 4.139402383E+01
 1.309555987E-05 -1.384829409E-04 7.292851682E+04 2.602696411E+01 4.859391841E+01
 -4.919121367E+00 4.110405248E-02 6.969602747E+04 1.017577226E+02 1.546987694E-02
 -4.543657704E+00 4.530407365E-02 6.969603709E+04 1.017575575E+02 2.376528991E-02
 -4.195888900E+00 4.920379390E-02 6.969605301E+04 1.017572933E+02 4.288686191E-02
 -3.873826138E+00 5.282460450E-02 6.969606230E+04 1.017570654E+02 6.565354759E-02
 -3.575620626E+00 5.618640622E-02 6.969608396E+04 1.017567520E+02 9.039478526E-02
 -3.298205569E+00 5.265276122E-02 6.969615300E+04 1.017560868E+02 1.168722571E-01
 -3.041149233E+00 4.825308859E-02 6.969626514E+04 1.017550063E+02 1.451256653E-01
 -2.803264312E+00 4.419042435E-02 6.969639796E+04 1.017536890E+02 1.752305421E-01
 -2.583163179E+00 4.044021356E-02 6.969655474E+04 1.017520872E+02 2.073283225E-01
 -2.379556485E+00 3.697964685E-02 6.969674217E+04 1.017501345E+02 2.416094933E-01
 -2.191246309E+00 3.378753935E-02 6.969696312E+04 1.017477947E+02 2.782810011E-01
 -2.017119786E+00 3.084421726E-02 6.969722184E+04 1.017450157E+02 3.175664441E-01
 -1.856143169E+00 2.813141181E-02 6.969752440E+04 1.017417293E+02 3.597121818E-01
 -1.707356298E+00 2.563216000E-02 6.969787753E+04 1.017378585E+02 4.049870388E-01
 -1.569867458E+00 2.333071191E-02 6.969828897E+04 1.017333140E+02 4.536824212E-01
 -1.442848585E+00 2.121244403E-02 6.969876781E+04 1.017279909E+02 5.061138712E-01
 -1.325530804E+00 1.926377831E-02 6.969932472E+04 1.017217660E+02 5.626224158E-01
 -1.217200282E+00 1.747210661E-02 6.969997207E+04 1.017144959E+02 6.235758589E-01
 -1.117194352E+00 1.582572025E-02 6.970072430E+04 1.017060132E+02 6.893703090E-01
 -1.024897928E+00 1.431374424E-02 6.970159822E+04 1.016961228E+02 7.604318260E-01
 -9.397401456E-01 1.292607613E-02 6.970261337E+04 1.016845973E+02 8.372181285E-01
 -8.611912519E-01 1.165332904E-02 6.970379248E+04 1.016711719E+02 9.202203806E-01
 -7.887597032E-01 1.048677877E-02 6.970516194E+04 1.016555389E+02 1.009965045E+00
 -7.219894662E-01 9.418314740E-03 6.970675239E+04 1.016373403E+02 1.107015797E+00
 -6.604575074E-01 8.440394571E-03 6.970859935E+04 1.016161606E+02 1.211975500E+00
 -6.037714561E-01 7.546002135E-03 6.971074398E+04 1.015915177E+02 1.325488261E+00
 -5.515674312E-01 6.728608944E-03 6.971323389E+04 1.015628527E+02 1.448241582E+00
 -5.035080185E-01 5.982138704E-03 6.971612414E+04 1.015295186E+02 1.580968568E+00
 -4.592803899E-01 5.300934912E-03 6.971947830E+04 1.014907664E+02 1.724450301E+00
 -4.185945532E-01 4.679731339E-03 6.972336970E+04 1.014457307E+02 1.879518870E+00
 -3.811817250E-01 4.113625277E-03 6.972788283E+04 1.013934125E+02 2.047059181E+00
 -3.467928166E-01 3.598053376E-03 6.973311491E+04 1.013326580E+02 2.228013796E+00
 -3.151970267E-01 3.128769932E-03 6.973917782E+04 1.012621378E+02 2.423386347E+00
 -2.861805321E-01 2.701827413E-03 6.974620002E+04 1.011803219E+02 2.634246982E+00
 -2.595452705E-01 2.313559042E-03 6.975432842E+04 1.010854324E+02 2.861738685E+00
 -2.351078094E-01 1.960563209E-03 6.976373130E+04 1.009754389E+02 3.107066123E+00
 -2.126982931E-01 1.639689452E-03 6.977460278E+04 1.008480308E+02 3.371535194E+00
 -1.921594656E-01 1.348025768E-03 6.978716529E+04 1.007005102E+02 3.656592277E+00
 -1.733457612E-01 1.082886963E-03 6.980167162E+04 1.005297651E+02 3.963757176E+00
 -1.561224597E-01 8.418037806E-04 6.981841113E+04 1.003322250E+02 4.294656561E+00
 -1.403649017E-01 6.225125391E-04 6.983771646E+04 1.001037558E+02 4.651105893E+00
 -1.259577585E-01 4.229450355E-04 6.985996878E+04 9.983957368E+01 5.035097606E+00
 -1.127943553E-01 2.412185126E-04 6.988560496E+04 9.953413341E+01 5.448832590E+00
 -1.007760412E-01 7.562551025E-05 6.991512778E+04 9.918096998E+01 5.894770971E+00
 -8.981160456E-02 -7.537650665E-05 6.994911825E+04 9.877251565E+01 6.375676872E+00
 -7.981673032E-02 -2.131758024E-04 6.998824857E+04 9.829984005E+01 6.894685907E+00
 -7.071349565E-02 -3.390173423E-04 7.003330243E+04 9.775240999E+01 7.455372180E+00
 -6.242990189E-02 -4.540140006E-04 7.008519244E+04 9.711750585E+01 8.061856035E+00
 -5.489944000E-02 -5.591578730E-04 7.014500209E+04 9.638007707E+01 8.718910305E+00
 -4.806068718E-02 -6.553315231E-04 7.021396599E+04 9.552114477E+01 9.432112630E+00
 -4.185693237E-02 -7.433191442E-04 7.029349246E+04 9.452128590E+01 1.020871798E+01
 -3.623864357E-02 -7.917392593E-04 7.038456304E+04 9.335895656E+01 1.106827839E+01
 -3.116551958E-02 -6.881680095E-04 7.048816335E+04 9.200929907E+01 1.203807864E+01
 -2.658086934E-02 -5.953362029E-04 7.060728608E+04 9.042915363E+01 1.313006715E+01
 -2.244370462E-02 -5.123064199E-04 7.074544090E+04 8.854416043E+01 1.436303548E+01
 -1.871623559E-02 -4.382026087E-04 7.090697299E+04 8.629069160E+01 1.576637172E+01
 -1.536363240E-02 -3.722091067E-04 7.109505467E+04 8.352658643E+01 1.739857721E+01
 -1.235380400E-02 -3.135692492E-04 7.131950174E+04 8.016230340E+01 1.930383471E+01
 -9.657192891E-03 -2.615835683E-04 7.157922454E+04 7.577156347E+01 2.163979628E+01
 -7.246584841E-03 -2.156075829E-04 7.190309544E+04 7.032442539E+01 2.448453416E+01
 -5.096932291E-03 -1.750491318E-04 7.224385732E+04 6.225732277E+01 2.833913875E+01
 -3.185190599E-03 -1.393648902E-04 7.268009152E+04 5.236990496E+01 3.319132136E+01
 -1.490165981E-03 -1.080547082E-04 7.289054784E+04 3.736985965E+01 4.309592141E+01
 7.626351982E-06 -8.064715534E-05 7.281764393E+04 2.707072272E+01 5.047421047E+01
 -4.913313371E+00 2.489252871E-01 6.969503216E+04 1.017616745E+02 1.553384695E-02
 -4.537962447E+00 2.349250492E-01 6.969500734E+04 1.017620640E+02 2.384393470E-02
 -4.190298097E+00 2.219669721E-01 6.969496102E+04 1.017628936E+02 4.300674122E-02
 -3.868332095E+00 2.099760589E-01 6.969492107E+04 1.017637131E+02 6.583809083E-02
 -3.570216196E+00 1.988826215E-01 6.969489367E+04 1.017644313E+02 9.066042802E-02
 -3.293175888E+00 1.838824513E-01 6.969489785E+04 1.017648827E+02 1.172317643E-01
 -3.036516010E+00 1.692705904E-01 6.969493253E+04 1.017650038E+02 1.455908321E-01
 -2.798997988E+00 1.557574046E-01 6.969498246E+04 1.017649190E+02 1.758098708E-01
 -2.579236335E+00 1.432632091E-01 6.969504978E+04 1.017645961E+02 2.080332351E-01
 -2.375943687E+00 1.317139694E-01 6.969513954E+04 1.017639862E+02 2.424554667E-01
 -2.187923970E+00 1.210409077E-01 6.969525427E+04 1.017630596E+02 2.792872052E-01
 -2.014066035E+00 1.111801364E-01 6.969539759E+04 1.017617738E+02 3.187560939E-01
 -1.853337728E+00 1.020723165E-01 6.969557464E+04 1.017600715E+02 3.611130076E-01
 -1.704780368E+00 9.366233799E-02 6.969579137E+04 1.017578859E+02 4.066317784E-01
 -1.567503617E+00 8.589902347E-02 6.969605468E+04 1.017551378E+02 4.556094331E-01
 -1.440680686E+00 7.873485059E-02 6.969637284E+04 1.017517325E+02 5.083678983E-01
 -1.323543888E+00 7.212569408E-02 6.969675562E+04 1.017475577E+02 5.652555156E-01
 -1.215380487E+00 6.603058519E-02 6.969721449E+04 1.017424805E+02 6.266484852E-01
 -1.115528842E+00 6.041148758E-02 6.969776297E+04 1.017363447E+02 6.929525509E-01
 -1.023374813E+00 5.523308872E-02 6.969841691E+04 1.017289660E+02 7.646048247E-01
 -9.383484168E-01 5.046260558E-02 6.969919486E+04 1.017201286E+02 8.420756895E-01
 -8.599207184E-01 4.606960396E-02 6.970011854E+04 1.017095793E+02 9.258707939E-01
 -7.876009322E-01 4.202583026E-02 6.970121331E+04 1.016970217E+02 1.016533138E+00
 -7.209337286E-01 3.830505527E-02 6.970250874E+04 1.016821099E+02 1.114645244E+00
 -6.594967266E-01 3.488292898E-02 6.970403930E+04 1.016644400E+02 1.220831421E+00
 -6.028981614E-01 3.173684576E-02 6.970584505E+04 1.016435418E+02 1.335760108E+00
 -5.507747132E-01 2.884581945E-02 6.970797251E+04 1.016188680E+02 1.460146325E+00
 -5.027894885E-01 2.619036756E-02 6.971047564E+04 1.015897830E+02 1.594754268E+00
 -4.586301419E-01 2.375240414E-02 6.971341689E+04 1.015555496E+02 1.740400146E+00
 -4.180071288E-01 2.151514076E-02 6.971686846E+04 1.015153136E+02 1.897955125E+00
 -3.806520802E-01 1.946299514E-02 6.972091368E+04 1.014680869E+02 2.068348766E+00
 -3.463162919E-01 1.758150684E-02 6.972564861E+04 1.014127274E+02 2.252572587E+00
 -3.147693181E-01 1.585725968E-02 6.973118384E+04 1.013479159E+02 2.451685590E+00
 -2.857976652E-01 1.427781026E-02 6.973764645E+04 1.012721339E+02 2.666819707E+00
 -2.592035763E-01 1.283162224E-02 6.974518236E+04 1.011836309E+02 2.899184940E+00