TITLE     = "fluent22.1.0  build-id: 10213"
VARIABLES = "X"
"Y"
"Pressure"
"X Velocity"
"Y Velocity"
DATASETAUXDATA Common.DensityVar="23"
DATASETAUXDATA Common.PressureVar="3"
DATASETAUXDATA Common.TemperatureVar="12"
DATASETAUXDATA Common.TurbulentDynamicViscosityVar="17"
DATASETAUXDATA Common.UVar="5"
DATASETAUXDATA Common.VectorVarsAreVelocity="TRUE"
DATASETAUXDATA Common.ViscosityVar="25"
DATASETAUXDATA Common.VVar="7"
ZONE T="fluid"
 STRANDID=1, SOLUTIONTIME=1.065
 Nodes=10240, Elements=10080, ZONETYPE=FEQuadrilateral
 DATAPACKING=POINT
 DT=(DOUBLE DOUBLE DOUBLE DOUBLE DOUBLE )
 -4.856290020E+00 -7.872354469E-01 6.970006818E+04 1.017418793E+02 1.290423898E-02
 -4.486974483E+00 -7.104692900E-01 6.970021928E+04 1.017394558E+02 2.122238706E-02
 -4.884823481E+00 -5.813004056E-01 6.969907598E+04 1.017457210E+02 1.395352066E-02
 -4.512987943E+00 -5.225885508E-01 6.969918992E+04 1.017438721E+02 2.231159892E-02
 -4.144900079E+00 -6.393553521E-01 6.970048642E+04 1.017347652E+02 4.046431401E-02
 -4.168579474E+00 -4.681973797E-01 6.969939224E+04 1.017402956E+02 4.161614095E-02
 -3.828110601E+00 -5.734880654E-01 6.970069409E+04 1.017302875E+02 6.344259874E-02
 -3.849628501E+00 -4.178168696E-01 6.969954883E+04 1.017368827E+02 6.464071466E-02
 -3.534787553E+00 -5.124902890E-01 6.970091850E+04 1.017257479E+02 8.838589489E-02
 -3.554304119E+00 -3.711587815E-01 6.969972029E+04 1.017334128E+02 8.965082217E-02
 -3.260724117E+00 -4.703357646E-01 6.970125116E+04 1.017205509E+02 1.149283388E-01
 -3.278680288E+00 -3.403610723E-01 6.969998680E+04 1.017293511E+02 1.163193438E-01
 -3.006572566E+00 -4.340438704E-01 6.970167329E+04 1.017146377E+02 1.430973774E-01
 -3.023133560E+00 -3.141827217E-01 6.970033307E+04 1.017246357E+02 1.446694575E-01
 -2.771375687E+00 -4.004496455E-01 6.970213863E+04 1.017083563E+02 1.730621734E-01
 -2.786645574E+00 -2.899477496E-01 6.970071669E+04 1.017195897E+02 1.748406564E-01
 -2.553761546E+00 -3.693580022E-01 6.970265529E+04 1.017015994E+02 2.049749189E-01
 -2.567836863E+00 -2.675156624E-01 6.970114471E+04 1.017141171E+02 2.069829541E-01
 -2.352455376E+00 -3.405876623E-01 6.970323463E+04 1.016942470E+02 2.390107302E-01
 -2.365425659E+00 -2.467559095E-01 6.970162786E+04 1.017081056E+02 2.412761646E-01
 -2.166272804E+00 -3.139701929E-01 6.970388099E+04 1.016862329E+02 2.753680150E-01
 -2.178221085E+00 -2.275471896E-01 6.970216991E+04 1.017014971E+02 2.779219180E-01
 -1.994113548E+00 -2.893491115E-01 6.970460170E+04 1.016774641E+02 3.142626876E-01
 -2.005116818E+00 -2.097768057E-01 6.970277732E+04 1.016942091E+02 3.171394012E-01
 -1.834955549E+00 -2.665790526E-01 6.970540609E+04 1.016678311E+02 3.559295500E-01
 -1.845085188E+00 -1.933400655E-01 6.970345873E+04 1.016861411E+02 3.591672095E-01
 -1.687849505E+00 -2.455249922E-01 6.970630388E+04 1.016572181E+02 4.006228911E-01
 -1.697171679E+00 -1.781397235E-01 6.970422317E+04 1.016771865E+02 4.042642293E-01
 -1.551913783E+00 -2.260615261E-01 6.970730588E+04 1.016454964E+02 4.486175062E-01
 -1.560489817E+00 -1.640854612E-01 6.970508071E+04 1.016672261E+02 4.527104492E-01
 -1.426329679E+00 -2.080721979E-01 6.970842440E+04 1.016325208E+02 5.002092554E-01
 -1.434216405E+00 -1.510934041E-01 6.970604293E+04 1.016561244E+02 5.048078388E-01
 -1.310337011E+00 -1.914488745E-01 6.970967332E+04 1.016181281E+02 5.557158821E-01
 -1.317587087E+00 -1.390856723E-01 6.970712296E+04 1.016437277E+02 5.608812636E-01
 -1.203230013E+00 -1.760911642E-01 6.971106833E+04 1.016021346E+02 6.154780009E-01
 -1.209892223E+00 -1.279899622E-01 6.970833575E+04 1.016298619E+02 6.212795460E-01
 -1.104353512E+00 -1.619058756E-01 6.971262725E+04 1.015843322E+02 6.798600849E-01
 -1.110473041E+00 -1.177391573E-01 6.970969834E+04 1.016143283E+02 6.863765866E-01
 -1.013099370E+00 -1.488065140E-01 6.971437029E+04 1.015644850E+02 7.492514557E-01
 -1.018718067E+00 -1.082709660E-01 6.971123018E+04 1.015969003E+02 7.565725093E-01
 -9.289031778E-01 -1.367128130E-01 6.971632050E+04 1.015423246E+02 8.240673245E-01
 -9.340597918E-01 -9.952758488E-02 6.971295354E+04 1.015773187E+02 8.322948179E-01
 -8.512411679E-01 -1.255502979E-01 6.971850411E+04 1.015175454E+02 9.047497833E-01
 -8.559715742E-01 -9.145538490E-02 6.971489388E+04 1.015552870E+02 9.139995991E-01
 -7.796273519E-01 -1.152498799E-01 6.972095103E+04 1.014897985E+02 9.917686995E-01
 -7.839647579E-01 -8.400461958E-02 6.971708037E+04 1.015304651E+02 1.002172739E+00
 -7.136108504E-01 -1.057474786E-01 6.972369546E+04 1.014586858E+02 1.085622681E+00
 -7.175859884E-01 -7.712915317E-02 6.971954641E+04 1.015024634E+02 1.097331156E+00
 -6.527734106E-01 -9.698366972E-02 6.972677642E+04 1.014237520E+02 1.186839898E+00
 -6.564147172E-01 -7.078620755E-02 6.972233030E+04 1.014708348E+02 1.200023920E+00
 -5.967270962E-01 -8.890335741E-02 6.973023853E+04 1.013844760E+02 1.295979609E+00
 -6.000608786E-01 -6.493612639E-02 6.972547596E+04 1.014350658E+02 1.310833264E+00
 -5.451121386E-01 -8.145546932E-02 6.973413282E+04 1.013402609E+02 1.413632202E+00
 -5.481627293E-01 -5.954215538E-02 6.972903374E+04 1.013945673E+02 1.430375850E+00
 -4.975949375E-01 -7.459267194E-02 6.973851770E+04 1.012904241E+02 1.540418912E+00
 -5.003848375E-01 -5.457023721E-02 6.973306134E+04 1.013486621E+02 1.559304170E+00
 -4.538662010E-01 -6.827110545E-02 6.974346008E+04 1.012341824E+02 1.676996440E+00
 -4.564162136E-01 -4.998882037E-02 6.973762504E+04 1.012965728E+02 1.698307480E+00
 -4.136392157E-01 -6.245013635E-02 6.974903636E+04 1.011706310E+02 1.824054749E+00
 -4.159685699E-01 -4.576868057E-02 6.974280081E+04 1.012374072E+02 1.848113207E+00
 -3.766482377E-01 -5.709212674E-02 6.975533389E+04 1.010987379E+02 1.982313699E+00
 -3.787747034E-01 -4.188275399E-02 6.974867554E+04 1.011701336E+02 2.009489644E+00
 -3.426469960E-01 -5.216221878E-02 6.976245338E+04 1.010173255E+02 2.152530552E+00
 -3.445869907E-01 -3.830598130E-02 6.975534906E+04 1.010935724E+02 2.183242465E+00
 -3.114073006E-01 -4.762813362E-02 6.977051015E+04 1.009250350E+02 2.335507830E+00
 -3.131759884E-01 -3.501516200E-02 6.976293579E+04 1.010063688E+02 2.370219276E+00
 -2.827177486E-01 -4.345998343E-02 6.977963585E+04 1.008203019E+02 2.532094338E+00
 -2.843291322E-01 -3.198881796E-02 6.977156698E+04 1.009069702E+02 2.571320036E+00
 -2.563825206E-01 -3.963009596E-02 6.978998118E+04 1.007013310E+02 2.743169479E+00
 -2.578495267E-01 -2.920706596E-02 6.978139335E+04 1.007935849E+02 2.787510894E+00
 -2.322202616E-01 -3.611285061E-02 6.980171882E+04 1.005660604E+02 2.969652912E+00
 -2.335548202E-01 -2.665149845E-02 6.979258698E+04 1.006641464E+02 3.019798126E+00
 -2.100630413E-01 -3.288452559E-02 6.981504692E+04 1.004121142E+02 3.212527938E+00
 -2.112761589E-01 -2.430507212E-02 6.980534459E+04 1.005162894E+02 3.269232970E+00
 -1.897553863E-01 -2.992315526E-02 6.983019266E+04 1.002367562E+02 3.472837822E+00
 -1.908572147E-01 -2.215200397E-02 6.981989222E+04 1.003472829E+02 3.536954142E+00
 -1.711533817E-01 -2.720839743E-02 6.984741625E+04 1.000368339E+02 3.751689461E+00
 -1.721532812E-01 -2.017767450E-02 6.983648912E+04 1.001539782E+02 3.824181431E+00
 -1.541238358E-01 -2.472141000E-02 6.986701623E+04 9.980870685E+01 4.050266964E+00
 -1.550304338E-01 -1.836853774E-02 6.985543223E+04 9.993274309E+01 4.132219979E+00
 -1.385435034E-01 -2.244473653E-02 6.988933532E+04 9.954816505E+01 4.369845435E+00
 -1.393647494E-01 -1.671203795E-02 6.987706226E+04 9.967937858E+01 4.462481045E+00
 -1.242983647E-01 -2.036220043E-02 6.991476724E+04 9.925032843E+01 4.711806288E+00
 -1.250415807E-01 -1.519653259E-02 6.990177042E+04 9.938901791E+01 4.816501950E+00
 -1.112829550E-01 -1.845880740E-02 6.994376533E+04 9.890952383E+01 5.077653666E+00
 -1.119548828E-01 -1.381122153E-02 6.993000696E+04 9.905600602E+01 5.195963976E+00
 -9.939974212E-02 -1.672065559E-02 6.997685279E+04 9.851912757E+01 5.469033808E+00
 -1.000065873E-01 -1.254608213E-02 6.996229128E+04 9.867374002E+01 5.602717722E+00
 -8.855854850E-02 -1.513485334E-02 7.001463532E+04 9.807138221E+01 5.887768398E+00
 -8.910602040E-02 -1.139180996E-02 6.999922432E+04 9.823448971E+01 6.038822767E+00
 -7.867601405E-02 -1.368944385E-02 7.005781631E+04 9.755711274E+01 6.335872603E+00
 -7.916936397E-02 -1.033976485E-02 7.004150223E+04 9.772913636E+01 6.506561600E+00
 -6.967509770E-02 -1.237333630E-02 7.010721836E+04 9.696547939E+01 6.815544399E+00
 -7.011915359E-02 -9.381921882E-03 7.008993878E+04 9.714690141E+01 7.008482835E+00
 -6.148461460E-02 -1.117624332E-02 7.016379889E+04 9.628344262E+01 7.329176483E+00
 -6.188381356E-02 -8.510827120E-03 7.014548559E+04 9.647475857E+01 7.547445660E+00
 -5.403880654E-02 -1.008862400E-02 7.022869424E+04 9.549556960E+01 7.879528481E+00
 -5.439722480E-02 -7.719557488E-03 7.020927212E+04 9.569728709E+01 8.126677647E+00
 -4.727694312E-02 -9.101631121E-03 7.030320416E+04 9.458238597E+01 8.469606085E+00
 -4.759832388E-02 -7.001684073E-03 7.028258698E+04 9.479507188E+01 8.749735607E+00
 -4.114295170E-02 -8.207063818E-03 7.038879897E+04 9.352436749E+01 9.104639924E+00
 -4.143073094E-02 -6.351239137E-03 7.036687890E+04 9.374876074E+01 9.422314754E+00
 -3.559328876E-02 -7.348847404E-03 7.048647743E+04 9.229913230E+01 9.806637570E+00
 -3.584927306E-02 -5.718295837E-03 7.046310756E+04 9.253624527E+01 1.016664559E+01
 -3.060734531E-02 -6.359738141E-03 7.059727535E+04 9.088224857E+01 1.060523761E+01
 -3.082828495E-02 -4.949336831E-03 7.057228042E+04 9.113329715E+01 1.101185411E+01
 -2.610149945E-02 -5.466678392E-03 7.072435859E+04 8.922811246E+01 1.150788188E+01
 -2.629076452E-02 -4.255219419E-03 7.069751403E+04 8.949500900E+01 1.196550437E+01
 -2.203546444E-02 -4.661565773E-03 7.087165661E+04 8.726123066E+01 1.252166074E+01
 -2.219614266E-02 -3.629623048E-03 7.084268033E+04 8.754581811E+01 1.303745915E+01
 -1.837209685E-02 -3.936918427E-03 7.104354169E+04 8.491123469E+01 1.367426173E+01
 -1.850701565E-02 -3.066708442E-03 7.101213715E+04 8.521669259E+01 1.425553701E+01
 -1.507716240E-02 -3.285832616E-03 7.124419856E+04 8.204163196E+01 1.500608655E+01
 -1.518890933E-02 -2.561085580E-03 7.120989665E+04 8.236921813E+01 1.566461939E+01
 -1.211911868E-02 -2.701942828E-03 7.148248499E+04 7.854420530E+01 1.656532621E+01
 -1.221006031E-02 -2.107783390E-03 7.144497133E+04 7.889945517E+01 1.731057220E+01
 -9.468913547E-03 -2.179384198E-03 7.176144559E+04 7.400922683E+01 1.846090645E+01
 -9.541212864E-03 -1.702221089E-03 7.171954943E+04 7.438980876E+01 1.931976604E+01
 -7.099798128E-03 -1.712757021E-03 7.210489622E+04 6.838981724E+01 2.075144036E+01
 -7.155430668E-03 -1.340180992E-03 7.205854574E+04 6.880377804E+01 2.176058295E+01
 -4.987153328E-03 -1.297093207E-03 7.247888424E+04 5.999006110E+01 2.389059432E+01
 -5.027922039E-03 -1.017782665E-03 7.242403958E+04 6.047640654E+01 2.510087966E+01
 -3.108328854E-03 -9.278240031E-04 7.293993758E+04 5.001951580E+01 2.803157239E+01
 -3.135877855E-03 -7.314578187E-04 7.287852194E+04 5.052315249E+01 2.943317139E+01
 -1.442493780E-03 -6.007480393E-04 7.320883341E+04 3.447169193E+01 3.706895279E+01
 -1.458321066E-03 -4.779249274E-04 7.313183613E+04 3.511665759E+01 3.869568266E+01
 2.950318352E-05 -3.119902977E-04 7.319576062E+04 2.348522282E+01 4.386696630E+01
 2.403397564E-05 -2.541545121E-04 7.310293327E+04 2.430128878E+01 4.564844481E+01
 -4.904860300E+00 -3.743658139E-01 6.969807031E+04 1.017496525E+02 1.483076268E-02
 -4.531156148E+00 -3.337852159E-01 6.969814960E+04 1.017483624E+02 2.322060089E-02
 -4.185016945E+00 -2.961880478E-01 6.969829082E+04 1.017458831E+02 4.257063501E-02
 -3.864463211E+00 -2.613602714E-01 6.969839947E+04 1.017435312E+02 6.561918634E-02
 -3.567654834E+00 -2.291029088E-01 6.969852134E+04 1.017411215E+02 9.066167868E-02
 -3.290949321E+00 -2.097191910E-01 6.969872275E+04 1.017381941E+02 1.174176964E-01
 -3.034450699E+00 -1.937065917E-01 6.969899234E+04 1.017346843E+02 1.459157820E-01
 -2.797081827E+00 -1.788791815E-01 6.969929372E+04 1.017308731E+02 1.762614153E-01
 -2.577458097E+00 -1.651513437E-01 6.969963268E+04 1.017266801E+02 2.085999874E-01
 -2.374292965E+00 -1.524435181E-01 6.970001889E+04 1.017220059E+02 2.431165568E-01
 -2.186391117E+00 -1.406817783E-01 6.970045579E+04 1.017168008E+02 2.800150361E-01
 -2.012642106E+00 -1.297974393E-01 6.970094903E+04 1.017109927E+02 3.195166357E-01
 -1.852014432E+00 -1.197266924E-01 6.970150646E+04 1.017044919E+02 3.618637797E-01
 -1.703550026E+00 -1.104102650E-01 6.970213639E+04 1.016972013E+02 4.073201326E-01
 -1.566359108E+00 -1.017931057E-01 6.970284813E+04 1.016890118E+02 4.561710737E-01
 -1.439615416E+00 -9.382408975E-02 6.970365248E+04 1.016797974E+02 5.087248506E-01
 -1.322551745E+00 -8.645574645E-02 6.970456178E+04 1.016694144E+02 5.653136231E-01
 -1.214455812E+00 -7.964400482E-02 6.970559018E+04 1.016576983E+02 6.262945912E-01
 -1.114666392E+00 -7.334795738E-02 6.970675391E+04 1.016444601E+02 6.920512643E-01
 -1.022569733E+00 -6.752964025E-02 6.970807159E+04 1.016294830E+02 7.629947797E-01
 -9.375962106E-01 -6.215382858E-02 6.970956464E+04 1.016125176E+02 8.395652691E-01
 -8.592172236E-01 -5.718784617E-02 6.971125769E+04 1.015932768E+02 9.222332694E-01
 -7.869422951E-01 -5.260138815E-02 6.971317903E+04 1.015714305E+02 1.011501141E+00
 -7.203163824E-01 -4.836635591E-02 6.971536125E+04 1.015465984E+02 1.107904494E+00
 -6.589173706E-01 -4.445670320E-02 6.971784178E+04 1.015183427E+02 1.212013640E+00
 -6.023537413E-01 -4.084829266E-02 6.972066370E+04 1.014861590E+02 1.324435121E+00
 -5.502624038E-01 -3.751876191E-02 6.972387652E+04 1.014494668E+02 1.445813321E+00
 -5.023066772E-01 -3.444739852E-02 6.972753719E+04 1.014075975E+02 1.576831406E+00
 -4.581744133E-01 -3.161502307E-02 6.973171114E+04 1.013597812E+02 1.718213917E+00
 -4.175762505E-01 -2.900387980E-02 6.973647351E+04 1.013051317E+02 1.870728696E+00
 -3.802439903E-01 -2.659753413E-02 6.974191059E+04 1.012426320E+02 2.035186091E+00
 -3.459290864E-01 -2.438077660E-02 6.974812152E+04 1.011711066E+02 2.212447806E+00
 -3.144012402E-01 -2.233953279E-02 6.975521987E+04 1.010891996E+02 2.403423724E+00
 -2.854470951E-01 -2.046077877E-02 6.976333547E+04 1.009953581E+02 2.609066711E+00
 -2.588690210E-01 -1.873246173E-02 6.977261795E+04 1.008878116E+02 2.830395078E+00
 -2.344839862E-01 -1.714342560E-02 6.978323934E+04 1.007645052E+02 3.068520297E+00
 -2.121225068E-01 -1.568334134E-02 6.979539539E+04 1.006230672E+02 3.324602610E+00
 -1.916276709E-01 -1.434264175E-02 6.980930990E+04 1.004607845E+02 3.599859491E+00
 -1.728542318E-01 -1.311246079E-02 6.982524019E+04 1.002745200E+02 3.895626606E+00
 -1.556677647E-01 -1.198457710E-02 6.984348138E+04 1.000606520E+02 4.213347415E+00
 -1.399438836E-01 -1.095136187E-02 6.986437152E+04 9.981499856E+01 4.554583470E+00
 -1.255675129E-01 -1.000573081E-02 6.988829843E+04 9.953271428E+01 4.921044227E+00
 -1.124322114E-01 -9.141100184E-03 6.991570822E+04 9.920817052E+01 5.314611728E+00
 -1.004395444E-01 -8.351346927E-03 6.994711527E+04 9.883479611E+01 5.737372834E+00
 -8.949849958E-02 -7.630772477E-03 6.998311433E+04 9.840490026E+01 6.191661820E+00
 -7.952494587E-02 -6.974070323E-03 7.002439373E+04 9.790941316E+01 6.680092163E+00
 -7.044112996E-02 -6.376296941E-03 7.007175752E+04 9.733761769E+01 7.205607318E+00
 -6.217520935E-02 -5.832845964E-03 7.012614557E+04 9.667655765E+01 7.771565209E+00
 -5.466081871E-02 -5.339425116E-03 7.018867361E+04 9.591089259E+01 8.381814921E+00
 -4.783666745E-02 -4.892035523E-03 7.026061363E+04 9.502131685E+01 9.040757680E+00
 -4.164616608E-02 -4.486953355E-03 7.034340117E+04 9.398843892E+01 9.754711761E+00
 -3.604259940E-02 -4.080418249E-03 7.043799871E+04 9.279029031E+01 1.054399924E+01
 -3.099533469E-02 -3.532626571E-03 7.054538266E+04 9.140276065E+01 1.143739676E+01
 -2.643406398E-02 -3.038373384E-03 7.066859706E+04 8.978162763E+01 1.244536159E+01
 -2.231800648E-02 -2.593127346E-03 7.081142026E+04 8.785141549E+01 1.358112779E+01
 -1.860956343E-02 -2.192698684E-03 7.097818193E+04 8.554499638E+01 1.487273334E+01
 -1.527408090E-02 -1.833217522E-03 7.117262387E+04 8.272236562E+01 1.637030432E+01
 -1.227962989E-02 -1.511113212E-03 7.140398089E+04 7.928424699E+01 1.811763686E+01
 -9.596802144E-03 -1.223094626E-03 7.167338063E+04 7.480745368E+01 2.025180729E+01
 -7.198520852E-03 -9.661312913E-04 7.200700092E+04 6.926035745E+01 2.284635387E+01
 -5.059865005E-03 -7.374352727E-04 7.236325463E+04 6.101978356E+01 2.638423503E+01
 -3.157906456E-03 -5.344432427E-04 7.281015213E+04 5.108374278E+01 3.091365483E+01
 -1.471558641E-03 -3.547977064E-04 7.304635862E+04 3.581979870E+01 4.041999297E+01
 1.856476775E-05 -1.963187265E-04 7.300071851E+04 2.519074101E+01 4.753668365E+01
 -4.916318661E+00 -1.667794339E-01 6.969706328E+04 1.017536310E+02 1.539466504E-02
 -4.541403550E+00 -1.443803986E-01 6.969710786E+04 1.017529033E+02 2.380683290E-02
 -4.194142753E+00 -1.236237876E-01 6.969718688E+04 1.017515308E+02 4.320397657E-02
 -3.872550368E+00 -1.043918285E-01 6.969724621E+04 1.017502400E+02 6.630921142E-02
 -3.574780313E+00 -8.657505193E-02 6.969731817E+04 1.017488765E+02 9.142491267E-02
 -3.297476488E+00 -7.864290832E-02 6.969745421E+04 1.017470716E+02 1.182900499E-01
 -3.040473521E+00 -7.283012270E-02 6.969764652E+04 1.017447616E+02 1.469341472E-01
 -2.802637931E+00 -6.744179192E-02 6.969786515E+04 1.017421813E+02 1.774425871E-01
 -2.582582388E+00 -6.244736054E-02 6.969811458E+04 1.017392669E+02 2.099598374E-01
 -2.379017813E+00 -5.781843021E-02 6.969840316E+04 1.017359344E+02 2.446762980E-01
 -2.190746541E+00 -5.352860895E-02 6.969873402E+04 1.017321406E+02 2.817996832E-01
 -2.016655942E+00 -4.955337137E-02 6.969911211E+04 1.017278236E+02 3.215546446E-01
 -1.855712486E+00 -4.586992902E-02 6.969954442E+04 1.017229039E+02 3.641879407E-01
 -1.706956217E+00 -4.245711013E-02 6.970003852E+04 1.017172942E+02 4.099682093E-01
 -1.569495609E+00 -3.929524796E-02 6.970060294E+04 1.017108947E+02 4.591862855E-01
 -1.442502771E+00 -3.636607724E-02 6.970124767E+04 1.017035896E+02 5.121566564E-01
 -1.325208992E+00 -3.365263798E-02 6.970198425E+04 1.016952450E+02 5.692186979E-01
 -1.216900586E+00 -3.113918616E-02 6.970282598E+04 1.016857062E+02 6.307378981E-01
 -1.116915029E+00 -2.881111078E-02 6.970378822E+04 1.016747947E+02 6.971072732E-01
 -1.024637362E+00 -2.665485670E-02 6.970488873E+04 1.016623036E+02 7.687488634E-01
 -9.394968417E-01 -2.465785297E-02 6.970614804E+04 1.016479940E+02 8.461152725E-01
 -8.609638263E-01 -2.280844598E-02 6.970758985E+04 1.016315893E+02 9.296912691E-01
 -7.885468753E-01 -2.109583730E-02 6.970924157E+04 1.016127696E+02 1.019995442E+00
 -7.217900516E-01 -1.951002558E-02 6.971113484E+04 1.015911651E+02 1.117581901E+00
 -6.602704105E-01 -1.804175228E-02 6.971330616E+04 1.015663482E+02 1.223042022E+00
 -6.035956642E-01 -1.668245087E-02 6.971579770E+04 1.015378248E+02 1.337006183E+00
 -5.514020081E-01 -1.542419914E-02 6.971865806E+04 1.015050242E+02 1.460145580E+00
 -5.033520996E-01 -1.425967433E-02 6.972194324E+04 1.014672875E+02 1.593174138E+00
 -4.591331767E-01 -1.318211088E-02 6.972571778E+04 1.014238544E+02 1.736850887E+00
 -4.184553089E-01 -1.218526039E-02 6.973005592E+04 1.013738483E+02 1.891981513E+00
 -3.810497702E-01 -1.126335374E-02 6.973504303E+04 1.013162586E+02 2.059421735E+00
 -3.466675254E-01 -1.041106506E-02 6.974077730E+04 1.012499210E+02 2.240078994E+00
 -3.150778226E-01 -9.623477529E-03 6.974737155E+04 1.011734966E+02 2.434918789E+00
 -2.860668849E-01 -8.896050728E-03 6.975495479E+04 1.010854314E+02 2.644968490E+00
 -2.594366933E-01 -8.224589643E-03 6.976367464E+04 1.009839466E+02 2.871304030E+00
 -2.350038550E-01 -7.605215184E-03 6.977370152E+04 1.008670218E+02 3.115082385E+00
 -2.125985520E-01 -7.034336301E-03 6.978523108E+04 1.007323011E+02 3.377581117E+00
 -1.920635628E-01 -6.508623682E-03 6.979848565E+04 1.005770666E+02 3.660135131E+00
 -1.732533539E-01 -6.024985166E-03 6.981371952E+04 1.003982060E+02 3.964157902E+00
 -1.560332350E-01 -5.580542923E-03 6.983122517E+04 1.001921163E+02 4.291214155E+00
 -1.402785743E-01 -5.172612511E-03 6.985133790E+04 9.995463565E+01 4.643008415E+00
 -1.258740686E-01 -4.798683881E-03 6.987444171E+04 9.968094837E+01 5.021403521E+00
 -1.127130666E-01 -4.456404409E-03 6.990097790E+04 9.936546166E+01 5.428456649E+00
 -1.006969389E-01 -4.143563971E-03 6.993145499E+04 9.900164889E+01 5.866459109E+00
 -8.973449345E-02 -3.858082070E-03 6.996646061E+04 9.858187326E+01 6.337977539E+00
 -7.974143313E-02 -3.597996917E-03 7.000667490E+04 9.809712140E+01 6.845917507E+00
 -7.063985130E-02 -3.361456404E-03 7.005289161E+04 9.753675152E+01 7.393582950E+00
 -6.235776395E-02 -3.146710794E-03 7.010603690E+04 9.688790259E+01 7.984756849E+00
 -5.482867526E-02 -2.952106859E-03 7.016721092E+04 9.613535562E+01 8.623788832E+00
 -4.799117425E-02 -2.776083206E-03 7.023766702E+04 9.525990611E+01 9.315720127E+00
 -4.178856051E-02 -2.617166695E-03 7.031882532E+04 9.424222245E+01 1.006734965E+01
 -3.617266500E-02 -2.437778547E-03 7.041163201E+04 9.306073625E+01 1.089870166E+01
 -3.110797615E-02 -2.111812602E-03 7.051705046E+04 9.169103536E+01 1.183820528E+01
 -2.653095570E-02 -1.818021296E-03 7.063810850E+04 9.008921483E+01 1.289731180E+01
 -2.240068261E-02 -1.553667060E-03 7.077845822E+04 8.818014013E+01 1.409220069E+01
 -1.867942889E-02 -1.316213884E-03 7.094240777E+04 8.589852833E+01 1.545216874E+01
 -1.533242155E-02 -1.103316006E-03 7.113338953E+04 8.310319850E+01 1.703246030E+01
 -1.232762191E-02 -9.128069244E-04 7.136087028E+04 7.969976509E+01 1.887811846E+01
 -9.635520702E-03 -7.426886549E-04 7.162477320E+04 7.526265945E+01 2.113770961E+01
 -7.228948071E-03 -5.911212122E-04 7.195244717E+04 6.976055615E+01 2.389082900E+01
 -5.082897356E-03 -4.564122246E-04 7.229910888E+04 6.161240261E+01 2.762914774E+01
 -3.174361571E-03 -3.370062114E-04 7.273778028E+04 5.169646846E+01 3.236389932E+01
 -1.482181602E-03 -2.314723694E-04 7.295583012E+04 3.658640105E+01 4.213191232E+01
 1.309555987E-05 -1.384829409E-04 7.289300126E+04 2.615690039E+01 4.942032268E+01
 -4.919121367E+00 4.110405248E-02 6.969605317E+04 1.017576377E+02 1.574165771E-02
 -4.543658870E+00 4.529838513E-02 6.969606305E+04 1.017574697E+02 2.418247770E-02
 -4.195891097E+00 4.919307189E-02 6.969607950E+04 1.017572006E+02 4.363928243E-02
 -3.873829243E+00 5.280945259E-02 6.969608936E+04 1.017569685E+02 6.680527011E-02
 -3.575624523E+00 5.616738062E-02 6.969611174E+04 1.017566503E+02 9.198047116E-02
 -3.298210158E+00 5.263035408E-02 6.969618221E+04 1.017559754E+02 1.189221511E-01
 -3.041154419E+00 4.822776968E-02 6.969629639E+04 1.017548792E+02 1.476706235E-01
 -2.803270005E+00 4.416262952E-02 6.969643144E+04 1.017535439E+02 1.783026747E-01
 -2.583169297E+00 4.041034307E-02 6.969659061E+04 1.017519212E+02 2.109621376E-01
 -2.379562952E+00 3.694806810E-02 6.969678069E+04 1.017499441E+02 2.458427353E-01
 -2.191253057E+00 3.375458933E-02 6.969700452E+04 1.017475763E+02 2.831548922E-01
 -2.017126752E+00 3.081020495E-02 6.969726638E+04 1.017447654E+02 3.231259328E-01
 -1.856150293E+00 2.809662027E-02 6.969757236E+04 1.017414428E+02 3.660063095E-01
 -1.707363528E+00 2.559684842E-02 6.969792922E+04 1.017375311E+02 4.120693050E-01
 -1.569874746E+00 2.329511737E-02 6.969834473E+04 1.017329407E+02 4.616111552E-01
 -1.442855886E+00 2.117678314E-02 6.969882802E+04 1.017275658E+02 5.149526344E-01
 -1.325538078E+00 1.922824869E-02 6.969938978E+04 1.017212829E+02 5.724404295E-01
 -1.217207491E+00 1.743688824E-02 6.970004242E+04 1.017139479E+02 6.344484549E-01
 -1.117201464E+00 1.579097656E-02 6.970080042E+04 1.017053928E+02 7.013794038E-01
 -1.024904912E+00 1.427962320E-02 6.970168061E+04 1.016954218E+02 7.736664212E-01
 -9.397469739E-01 1.289271110E-02 6.970270256E+04 1.016838065E+02 8.517748363E-01
 -8.611979005E-01 1.162083953E-02 6.970388902E+04 1.016702817E+02 9.362039803E-01
 -7.887661503E-01 1.045527113E-02 6.970526640E+04 1.016545385E+02 1.027489075E+00
 -7.219956927E-01 9.387882649E-03 6.970686534E+04 1.016362181E+02 1.126203182E+00
 -6.604634966E-01 8.411119528E-03 6.970872136E+04 1.016149043E+02 1.232959210E+00
 -6.037771938E-01 7.517953830E-03 6.971087559E+04 1.015901138E+02 1.348411993E+00
 -5.515729056E-01 6.701845580E-03 6.971337561E+04 1.015612870E+02 1.473260496E+00
 -5.035132200E-01 5.956707272E-03 6.971627642E+04 1.015277756E+02 1.608250060E+00
 -4.592853112E-01 5.276871438E-03 6.971964152E+04 1.014888299E+02 1.754174865E+00
 -4.185991893E-01 4.657061123E-03 6.972354412E+04 1.014435835E+02 1.911880802E+00
 -3.811860729E-01 4.092363138E-03 6.972806857E+04 1.013910361E+02 2.082267780E+00
 -3.467968754E-01 3.578203923E-03 6.973331195E+04 1.013300330E+02 2.266294215E+00
 -3.152007976E-01 3.110327876E-03 6.973938585E+04 1.012592435E+02 2.464981673E+00
 -2.861840182E-01 2.684777935E-03 6.974641847E+04 1.011771391E+02 2.679417897E+00
 -2.595484768E-01 2.297878234E-03 6.975455638E+04 1.010819395E+02 2.910766422E+00
 -2.351107425E-01 1.946218594E-03 6.976396732E+04 1.009716101E+02 3.160252232E+00
 -2.127009613E-01 1.626640588E-03 6.977484492E+04 1.008438428E+02 3.429201681E+00
 -1.921618788E-01 1.336224946E-03 6.978741114E+04 1.006959401E+02 3.719089576E+00
 -1.733479305E-01 1.072279992E-03 6.980191799E+04 1.005247882E+02 4.031463441E+00
 -1.561243974E-01 8.323308504E-04 6.981865396E+04 1.003268153E+02 4.367978752E+00
 -1.403666208E-01 6.141091523E-04 6.983795075E+04 1.000978855E+02 4.730483677E+00
 -1.259592732E-01 4.155429944E-04 6.986018832E+04 9.983321502E+01 5.121010176E+00
 -1.127956799E-01 2.347469373E-04 6.988580244E+04 9.952725323E+01 5.541800035E+00
 -1.007771905E-01 7.001186781E-05 6.991529476E+04 9.917352623E+01 5.995358978E+00
 -8.981259360E-02 -8.020538682E-05 6.994924452E+04 9.876446285E+01 6.484509011E+00
 -7.981757391E-02 -2.172927513E-04 6.998832170E+04 9.829112784E+01 7.012450618E+00
 -7.071420838E-02 -3.424939357E-04 7.003330764E+04 9.774297985E+01 7.582833098E+00
 -6.243049792E-02 -4.569197269E-04 7.008511218E+04 9.710728303E+01 8.199866648E+00
 -5.489993293E-02 -5.615594006E-04 7.014481585E+04 9.636897123E+01 8.868433336E+00
 -4.806108988E-02 -6.572920791E-04 7.021364856E+04 9.550903176E+01 9.594242624E+00
 -4.185725694E-02 -7.448980148E-04 7.029301217E+04 9.450806454E+01 1.038471211E+01
 -3.623890117E-02 -7.929914235E-04 7.038386797E+04 9.334458777E+01 1.125960182E+01
 -3.116572031E-02 -6.891438238E-04 7.048717208E+04 9.199387863E+01 1.224647889E+01
 -2.658102261E-02 -5.960814233E-04 7.060591013E+04 9.041273167E+01 1.335763491E+01
 -2.244381888E-02 -5.128620682E-04 7.074357764E+04 8.852653880E+01 1.461230453E+01
 -1.871631833E-02 -4.386050436E-04 7.090448750E+04 8.627170083E+01 1.604061105E+01
 -1.536369018E-02 -3.724901811E-04 7.109174312E+04 8.350598341E+01 1.770191463E+01
 -1.235384249E-02 -3.137565332E-04 7.131507483E+04 8.013963785E+01 1.964255613E+01
 -9.657216946E-03 -2.617006227E-04 7.157317104E+04 7.574769873E+01 2.202133472E+01
 -7.246598541E-03 -2.156742641E-04 7.189447492E+04 7.029793675E+01 2.492515973E+01
 -5.096939025E-03 -1.750819106E-04 7.223138786E+04 6.224901694E+01 2.885438658E+01
 -3.185193120E-03 -1.393771597E-04 7.266140411E+04 5.236079995E+01 3.379154896E+01
 -1.490166456E-03 -1.080570191E-04 7.286057973E+04 3.741860805E+01 4.383462071E+01
 7.626351982E-06 -8.064715534E-05 7.278034187E+04 2.719888209E+01 5.130504790E+01
 -4.913313371E+00 2.489252871E-01 6.969504042E+04 1.017616581E+02 1.580649996E-02
 -4.537963606E+00 2.349193719E-01 6.969501530E+04 1.017620544E+02 2.426208941E-02
 -4.190300282E+00 2.219562694E-01 6.969496852E+04 1.017628980E+02 4.376049394E-02
 -3.868335183E+00 2.099609321E-01 6.969492833E+04 1.017637315E+02 6.699188001E-02
 -3.570220074E+00 1.988636255E-01 6.969490086E+04 1.017644629E+02 9.224915353E-02
 -3.293180454E+00 1.838600802E-01 6.969490540E+04 1.017649239E+02 1.192857989E-01
 -3.036521169E+00 1.692453141E-01 6.969494085E+04 1.017650501E+02 1.481411234E-01
 -2.799003651E+00 1.557296582E-01 6.969499162E+04 1.017649686E+02 1.788885446E-01
 -2.579242419E+00 1.432333924E-01 6.969505985E+04 1.017646468E+02 2.116748345E-01
 -2.375950118E+00 1.316824493E-01 6.969515063E+04 1.017640356E+02 2.466978043E-01
 -2.187930680E+00 1.210080207E-01 6.969526648E+04 1.017631052E+02 2.841715957E-01
 -2.014072960E+00 1.111461912E-01 6.969541101E+04 1.017618130E+02 3.243276023E-01
 -1.853344809E+00 1.020375957E-01 6.969558940E+04 1.017601016E+02 3.674208140E-01
 -1.704787554E+00 9.362710050E-02 6.969580758E+04 1.017579038E+02 4.137295430E-01
 -1.567510859E+00 8.586350601E-02 6.969607250E+04 1.017551402E+02 4.635556654E-01
 -1.440687939E+00 7.869926948E-02 6.969639243E+04 1.017517157E+02 5.172263595E-01
 -1.323551112E+00 7.209024666E-02 6.969677715E+04 1.017475176E+02 5.750956458E-01
 -1.215387646E+00 6.599545110E-02 6.969723818E+04 1.017424126E+02 6.375458543E-01
 -1.115535902E+00 6.037682996E-02 6.969778904E+04 1.017362438E+02 7.049893330E-01
 -1.023381744E+00 5.519905523E-02 6.969844558E+04 1.017288267E+02 7.778702990E-01
 -9.383551918E-01 5.042932926E-02 6.969922639E+04 1.017199447E+02 8.566667660E-01
 -8.599273132E-01 4.603720400E-02 6.970015317E+04 1.017093440E+02 9.418925702E-01
 -7.876073252E-01 4.199441266E-02 6.970125130E+04 1.016967277E+02 1.034099489E+00
 -7.209399008E-01 3.827471336E-02 6.970255034E+04 1.016817489E+02 1.133879445E+00
 -6.595026617E-01 3.485374389E-02 6.970408471E+04 1.016640033E+02 1.241866802E+00
 -6.029038453E-01 3.170888681E-02 6.970589446E+04 1.016430197E+02 1.358740739E+00
 -5.507801343E-01 2.881914446E-02 6.970802604E+04 1.016182502E+02 1.485227748E+00
 -5.027946375E-01 2.616502313E-02 6.971053334E+04 1.015890584E+02 1.622104257E+00
 -4.586350117E-01 2.372842591E-02 6.971347871E+04 1.015547062E+02 1.770199521E+00
 -4.180117146E-01 2.149255365E-02 6.971693423E+04 1.015143386E+02 1.930398637E+00
 -3.806563793E-01 1.944181358E-02 6.972098308E+04 1.014669667E+02 2.103645985E+00
 -3.463203035E-01 1.756173508E-02 6.972572111E+04 1.014114474E+02 2.290949405E+00
 -3.147730437E-01 1.583889209E-02 6.973125864E+04 1.013464614E+02 2.493384788E+00
 -2.858011081E-01 1.426083171E-02 6.973772244E+04 1.012704888E+02 2.712102487E+00
 -2.592067415E-01 1.281600854E-02 6.974525806E+04 1.011817806E+02 2.948332150E+00