TITLE     = "fluent22.1.0  build-id: 10213"
VARIABLES = "X"
"Y"
"Pressure"
"X Velocity"
"Y Velocity"
DATASETAUXDATA Common.DensityVar="23"
DATASETAUXDATA Common.PressureVar="3"
DATASETAUXDATA Common.TemperatureVar="12"
DATASETAUXDATA Common.TurbulentDynamicViscosityVar="17"
DATASETAUXDATA Common.UVar="5"
DATASETAUXDATA Common.VectorVarsAreVelocity="TRUE"
DATASETAUXDATA Common.ViscosityVar="25"
DATASETAUXDATA Common.VVar="7"
ZONE T="fluid"
 STRANDID=1, SOLUTIONTIME=1.0825
 Nodes=10240, Elements=10080, ZONETYPE=FEQuadrilateral
 DATAPACKING=POINT
 DT=(DOUBLE DOUBLE DOUBLE DOUBLE DOUBLE )
 -4.856290020E+00 -7.872354469E-01 6.970015371E+04 1.017415549E+02 1.308792534E-02
 -4.486975562E+00 -7.104743844E-01 6.970030717E+04 1.017390959E+02 2.152701644E-02
 -4.884823481E+00 -5.813004056E-01 6.969914740E+04 1.017454521E+02 1.415322615E-02
 -4.512989010E+00 -5.225936026E-01 6.969926325E+04 1.017435756E+02 2.263268400E-02
 -4.144902111E+00 -6.393649440E-01 6.970057842E+04 1.017343369E+02 4.104894250E-02
 -4.168581482E+00 -4.682068946E-01 6.969946893E+04 1.017399458E+02 4.221779124E-02
 -3.828113468E+00 -5.735016079E-01 6.970078916E+04 1.017297946E+02 6.436199453E-02
 -3.849631337E+00 -4.178303072E-01 6.969962802E+04 1.017364832E+02 6.557737932E-02
 -3.534791149E+00 -5.125072791E-01 6.970101674E+04 1.017251901E+02 8.966871739E-02
 -3.554307677E+00 -3.711756445E-01 6.969980204E+04 1.017329632E+02 9.095142167E-02
 -3.260728349E+00 -4.703557595E-01 6.970135401E+04 1.017199193E+02 1.165973371E-01
 -3.278684476E+00 -3.403809241E-01 6.970007238E+04 1.017288435E+02 1.180074328E-01
 -3.006577347E+00 -4.340664539E-01 6.970178191E+04 1.017139232E+02 1.451752032E-01
 -3.023138292E+00 -3.142051484E-01 6.970042349E+04 1.017240621E+02 1.467684037E-01
 -2.771380935E+00 -4.004744321E-01 6.970225351E+04 1.017075550E+02 1.755735312E-01
 -2.786650769E+00 -2.899723671E-01 6.970081237E+04 1.017189465E+02 1.773754464E-01
 -2.553767186E+00 -3.693846381E-01 6.970277707E+04 1.017007061E+02 2.079464500E-01
 -2.567842446E+00 -2.675421182E-01 6.970124615E+04 1.017133997E+02 2.099804552E-01
 -2.352461340E+00 -3.406158228E-01 6.970336403E+04 1.016932549E+02 2.424714154E-01
 -2.365431563E+00 -2.467838800E-01 6.970173568E+04 1.017073081E+02 2.447656184E-01
 -2.166279029E+00 -3.139995802E-01 6.970401877E+04 1.016851350E+02 2.793495522E-01
 -2.178227247E+00 -2.275763781E-01 6.970228475E+04 1.017006134E+02 2.819352944E-01
 -1.994119977E+00 -2.893794525E-01 6.970474868E+04 1.016762523E+02 3.187997638E-01
 -2.005123181E+00 -2.098069401E-01 6.970289987E+04 1.016932320E+02 3.217116668E-01
 -1.834962129E+00 -2.666100972E-01 6.970556315E+04 1.016664964E+02 3.610601169E-01
 -1.845091699E+00 -1.933708966E-01 6.970358971E+04 1.016850628E+02 3.643366022E-01
 -1.687856188E+00 -2.455565113E-01 6.970647195E+04 1.016557507E+02 4.063884408E-01
 -1.697178290E+00 -1.781710229E-01 6.970436337E+04 1.016759984E+02 4.100725381E-01
 -1.551920523E+00 -2.260933099E-01 6.970748596E+04 1.016438854E+02 4.550633591E-01
 -1.560496485E+00 -1.641170201E-01 6.970523098E+04 1.016659188E+02 4.592033017E-01
 -1.426336437E+00 -2.081040546E-01 6.970861753E+04 1.016307544E+02 5.073848575E-01
 -1.434223089E+00 -1.511250314E-01 6.970620415E+04 1.016546875E+02 5.120350007E-01
 -1.310343751E+00 -1.914806290E-01 6.970988063E+04 1.016161934E+02 5.636751192E-01
 -1.317593750E+00 -1.391171937E-01 6.970729608E+04 1.016421501E+02 5.688969539E-01
 -1.203236700E+00 -1.761226566E-01 6.971129100E+04 1.016000177E+02 6.242795348E-01
 -1.209898831E+00 -1.280212188E-01 6.970852176E+04 1.016281313E+02 6.301427739E-01
 -1.104360115E+00 -1.619369606E-01 6.971286652E+04 1.015820179E+02 6.895677182E-01
 -1.110479565E+00 -1.177700045E-01 6.970989829E+04 1.016124315E+02 6.961515151E-01
 -1.013105862E+00 -1.488370598E-01 6.971462749E+04 1.015619570E+02 7.599345259E-01
 -1.018724479E+00 -1.083012728E-01 6.971144519E+04 1.015948231E+02 7.673288473E-01
 -9.289095329E-01 -1.367427002E-01 6.971659702E+04 1.015395652E+02 8.358011286E-01
 -9.340660666E-01 -9.955723285E-02 6.971318479E+04 1.015750457E+02 8.441082430E-01
 -8.512473635E-01 -1.255794194E-01 6.971880141E+04 1.015145356E+02 9.176160258E-01
 -8.559776894E-01 -9.148426778E-02 6.971514260E+04 1.015528015E+02 9.269522049E-01
 -7.796333677E-01 -1.152781399E-01 6.972127065E+04 1.014865181E+02 1.005855945E+00
 -7.839706933E-01 -8.403264254E-02 6.971734783E+04 1.015277494E+02 1.016353485E+00
 -7.136166682E-01 -1.057747924E-01 6.972403900E+04 1.014551130E+02 1.101026887E+00
 -7.175917264E-01 -7.715623238E-02 6.971983397E+04 1.014994985E+02 1.112836376E+00
 -6.527790146E-01 -9.700996296E-02 6.972714553E+04 1.014198636E+02 1.203664887E+00
 -6.564202421E-01 -7.081226980E-02 6.972263934E+04 1.014676002E+02 1.216957868E+00
 -5.967324726E-01 -8.892856625E-02 6.973063493E+04 1.013802473E+02 1.314337709E+00
 -6.000661770E-01 -6.496110876E-02 6.972580790E+04 1.014315399E+02 1.329308717E+00
 -5.451172757E-01 -8.147953988E-02 6.973455827E+04 1.013356657E+02 1.433644963E+00
 -5.481677898E-01 -5.956600496E-02 6.972939002E+04 1.013907270E+02 1.450514597E+00
 -4.975998257E-01 -7.461556017E-02 6.973897397E+04 1.012854345E+02 1.562217602E+00
 -5.003896510E-01 -5.459291093E-02 6.973344344E+04 1.013444830E+02 1.581237714E+00
 -4.538708327E-01 -6.829277693E-02 6.974394895E+04 1.012287695E+02 1.700722491E+00
 -4.564207726E-01 -5.001028478E-02 6.973803438E+04 1.012920290E+02 1.722178138E+00
 -4.136435854E-01 -6.247056620E-02 6.974955953E+04 1.011647643E+02 1.849860727E+00
 -4.159728693E-01 -4.578891167E-02 6.974323874E+04 1.012324725E+02 1.874073397E+00
 -3.766523416E-01 -5.711129936E-02 6.975589312E+04 1.010923878E+02 2.010364405E+00
 -3.787787398E-01 -4.190173703E-02 6.974914345E+04 1.011647812E+02 2.037704577E+00
 -3.426508324E-01 -5.218012778E-02 6.976305024E+04 1.010104569E+02 2.183004481E+00
 -3.445907626E-01 -3.832371063E-02 6.975584826E+04 1.010877716E+02 2.213891201E+00
 -3.114108696E-01 -4.764478150E-02 6.977114595E+04 1.009176120E+02 2.368594375E+00
 -3.131794962E-01 -3.503164077E-02 6.976346724E+04 1.010000870E+02 2.403492200E+00
 -2.827210523E-01 -4.347538137E-02 6.978031191E+04 1.008122909E+02 2.567997860E+00
 -2.843323782E-01 -3.200405789E-02 6.977213144E+04 1.009001774E+02 2.607420618E+00
 -2.563855626E-01 -3.964426345E-02 6.979069871E+04 1.006926938E+02 2.782112567E+00
 -2.578525147E-01 -2.922108697E-02 6.978199156E+04 1.007862492E+02 2.826660197E+00
 -2.322230476E-01 -3.612581506E-02 6.980247865E+04 1.005567588E+02 3.011873235E+00
 -2.335575559E-01 -2.666432819E-02 6.979321942E+04 1.006562332E+02 3.062235264E+00
 -2.100655781E-01 -3.289632181E-02 6.981584954E+04 1.004021089E+02 3.258281104E+00
 -2.112786494E-01 -2.431674551E-02 6.980601129E+04 1.005077638E+02 3.315213879E+00
 -1.897576825E-01 -2.993382487E-02 6.983103820E+04 1.002260061E+02 3.522399324E+00
 -1.908594686E-01 -2.216256258E-02 6.982059283E+04 1.003381087E+02 3.586754236E+00
 -1.711554472E-01 -2.721798817E-02 6.984830443E+04 1.000252960E+02 3.805356133E+00
 -1.721553083E-01 -2.018716588E-02 6.983722282E+04 1.001441174E+02 3.878097625E+00
 -1.541256817E-01 -2.472997498E-02 6.986794625E+04 9.979633615E+01 4.108358917E+00
 -1.550322452E-01 -1.837701465E-02 6.985619767E+04 9.992215648E+01 4.190572504E+00
 -1.385451417E-01 -2.245233335E-02 6.989030589E+04 9.953491318E+01 4.432710223E+00
 -1.393663569E-01 -1.671955751E-02 6.987785750E+04 9.966802341E+01 4.525617794E+00
 -1.242998082E-01 -2.036889032E-02 6.991577653E+04 9.923614247E+01 4.779817252E+00
 -1.250429972E-01 -1.520315542E-02 6.990259301E+04 9.937684815E+01 4.884796514E+00
 -1.112842172E-01 -1.846465423E-02 6.994481060E+04 9.889434973E+01 5.151215403E+00
 -1.119561216E-01 -1.381701081E-02 6.993085343E+04 9.904297486E+01 5.269821794E+00
 -9.940083704E-02 -1.672572494E-02 6.997793007E+04 9.850290878E+01 5.548591290E+00
 -1.000076619E-01 -1.255110267E-02 6.996315682E+04 9.865979789E+01 5.682585352E+00
 -8.855949020E-02 -1.513921154E-02 7.001573990E+04 9.805405136E+01 5.973808958E+00
 -8.910694486E-02 -1.139612727E-02 7.000010318E+04 9.821957860E+01 6.125187494E+00
 -7.867681666E-02 -1.369315704E-02 7.005894291E+04 9.753858830E+01 6.428931770E+00
 -7.917015207E-02 -1.034344421E-02 7.004238791E+04 9.771318614E+01 6.599957934E+00
 -6.967577515E-02 -1.237646956E-02 7.010836065E+04 9.694566651E+01 6.916213263E+00
 -7.011981900E-02 -9.385027527E-03 7.009082360E+04 9.712983000E+01 7.109502861E+00
 -6.148518047E-02 -1.117885989E-02 7.016494918E+04 9.626222780E+01 7.438111783E+00
 -6.188436956E-02 -8.513421459E-03 7.014636027E+04 9.645646766E+01 7.656749101E+00
 -5.403927388E-02 -1.009078459E-02 7.022984342E+04 9.547281860E+01 7.997467694E+00
 -5.439768417E-02 -7.721700425E-03 7.021012562E+04 9.567766077E+01 8.245004272E+00
 -4.727732432E-02 -9.103393276E-03 7.030434079E+04 9.455792506E+01 8.597382321E+00
 -4.759869876E-02 -7.003432427E-03 7.028340553E+04 9.477395894E+01 8.877920644E+00
 -4.114325841E-02 -8.208481488E-03 7.038990774E+04 9.349803973E+01 9.243215557E+00
 -4.143103269E-02 -6.352646180E-03 7.036764436E+04 9.372603268E+01 9.561316179E+00
 -3.559353166E-02 -7.349970306E-03 7.048752567E+04 9.227083742E+01 9.957138423E+00
 -3.584951218E-02 -5.719410779E-03 7.046378477E+04 9.251182358E+01 1.031759930E+01
 -3.060753389E-02 -6.360611174E-03 7.059820422E+04 9.085204118E+01 1.076901764E+01
 -3.082847079E-02 -4.950204355E-03 7.057280914E+04 9.110724338E+01 1.117612542E+01
 -2.610164289E-02 -5.467343508E-03 7.072510654E+04 8.919600518E+01 1.168654378E+01
 -2.629090603E-02 -4.255880867E-03 7.069783001E+04 8.946735877E+01 1.214467725E+01
 -2.203557093E-02 -4.662060457E-03 7.087215884E+04 8.722687421E+01 1.271716301E+01
 -2.219624784E-02 -3.630115406E-03 7.084271499E+04 8.751625573E+01 1.323344237E+01
 -1.837217363E-02 -3.937275785E-03 7.104371694E+04 8.487443158E+01 1.388906999E+01
 -1.850709158E-02 -3.067064415E-03 7.101180570E+04 8.518506350E+01 1.447071238E+01
 -1.507721578E-02 -3.286081541E-03 7.124390736E+04 8.200168906E+01 1.524322361E+01
 -1.518896218E-02 -2.561333749E-03 7.120905209E+04 8.233480966E+01 1.590205242E+01
 -1.211915406E-02 -2.702108227E-03 7.148157755E+04 7.850148100E+01 1.682905392E+01
 -1.221009539E-02 -2.107948429E-03 7.144345970E+04 7.886250744E+01 1.757462801E+01
 -9.468935542E-03 -2.179487266E-03 7.175955241E+04 7.396110884E+01 1.875589523E+01
 -9.541234703E-03 -1.702324026E-03 7.171697441E+04 7.434824487E+01 1.961579505E+01
 -7.099810584E-03 -1.712815543E-03 7.210177274E+04 6.833791210E+01 2.108946062E+01
 -7.155443055E-03 -1.340239493E-03 7.205460100E+04 6.875922955E+01 2.210045925E+01
 -4.987159410E-03 -1.297121865E-03 7.247305869E+04 5.993215623E+01 2.428217010E+01
 -5.027928098E-03 -1.017811342E-03 7.241733165E+04 6.042914466E+01 2.549429107E+01
 -3.108331112E-03 -9.278346747E-04 7.293133680E+04 4.996049746E+01 2.847702046E+01
 -3.135880109E-03 -7.314685105E-04 7.286901558E+04 5.047141217E+01 2.988043185E+01
 -1.442494200E-03 -6.007500344E-04 7.319043532E+04 3.435735715E+01 3.764742990E+01
 -1.458321487E-03 -4.779269294E-04 7.311212165E+04 3.501247820E+01 3.927808673E+01
 2.950318352E-05 -3.119902977E-04 7.316821776E+04 2.330991166E+01 4.455178984E+01
 2.403397564E-05 -2.541545121E-04 7.307371178E+04 2.414554934E+01 4.633918683E+01
 -4.904860300E+00 -3.743658139E-01 6.969812744E+04 1.017494406E+02 1.504396215E-02
 -4.531157204E+00 -3.337902329E-01 6.969820823E+04 1.017481302E+02 2.355552091E-02
 -4.185018933E+00 -2.961975004E-01 6.969835210E+04 1.017456126E+02 4.318647492E-02
 -3.864466020E+00 -2.613736242E-01 6.969846272E+04 1.017432256E+02 6.656999540E-02
 -3.567658359E+00 -2.291196695E-01 6.969858661E+04 1.017407806E+02 9.197647352E-02
 -3.290953471E+00 -2.097389272E-01 6.969879109E+04 1.017378112E+02 1.191207875E-01
 -3.034455388E+00 -1.937288909E-01 6.969906459E+04 1.017342520E+02 1.480313329E-01
 -2.797086975E+00 -1.789036611E-01 6.969937020E+04 1.017303884E+02 1.788147074E-01
 -2.577463630E+00 -1.651776521E-01 6.969971379E+04 1.017261390E+02 2.116180935E-01
 -2.374298816E+00 -1.524713328E-01 6.970010515E+04 1.017214033E+02 2.466289668E-01
 -2.186397222E+00 -1.407108034E-01 6.970054769E+04 1.017161313E+02 2.840539670E-01
 -2.012648409E+00 -1.298274036E-01 6.970104714E+04 1.017102503E+02 3.241172904E-01
 -1.852020882E+00 -1.197573473E-01 6.970161136E+04 1.017036699E+02 3.670646410E-01
 -1.703556573E+00 -1.104413831E-01 6.970224873E+04 1.016962924E+02 4.131632482E-01
 -1.566365710E+00 -1.018244786E-01 6.970296859E+04 1.016880078E+02 4.627023427E-01
 -1.439622032E+00 -9.385552724E-02 6.970378177E+04 1.016786898E+02 5.159943249E-01
 -1.322558340E+00 -8.648707479E-02 6.970470069E+04 1.016681935E+02 5.733758242E-01
 -1.214462351E+00 -7.967506575E-02 6.970573951E+04 1.016563537E+02 6.352088481E-01
 -1.114672846E+00 -7.337860705E-02 6.970691452E+04 1.016429806E+02 7.018820757E-01
 -1.022576073E+00 -6.755974831E-02 6.970824439E+04 1.016278565E+02 7.738122049E-01
 -9.376024136E-01 -6.218327743E-02 6.970975058E+04 1.016107308E+02 8.514453467E-01
 -8.592232667E-01 -5.721653026E-02 6.971145777E+04 1.015913156E+02 9.352584625E-01
 -7.869481586E-01 -5.262921344E-02 6.971339430E+04 1.015692796E+02 1.025760799E+00
 -7.203220487E-01 -4.839323937E-02 6.971559277E+04 1.015442415E+02 1.123495357E+00
 -6.589228244E-01 -4.448257242E-02 6.971809067E+04 1.015157622E+02 1.229040357E+00
 -6.023589695E-01 -4.087308554E-02 6.972093108E+04 1.014833363E+02 1.343010826E+00
 -5.502673954E-01 -3.754242638E-02 6.972416355E+04 1.014463820E+02 1.466060238E+00
 -5.023114232E-01 -3.446989231E-02 6.972784499E+04 1.014042294E+02 1.598881588E+00
 -4.581789067E-01 -3.163631353E-02 6.973204081E+04 1.013561077E+02 1.742209710E+00
 -4.175804864E-01 -2.902394368E-02 6.973682609E+04 1.013011299E+02 1.896823468E+00
 -3.802479655E-01 -2.661635739E-02 6.974228706E+04 1.012382765E+02 2.063545125E+00
 -3.459327997E-01 -2.439835422E-02 6.974852278E+04 1.011663732E+02 2.243248161E+00
 -3.144046923E-01 -2.235586851E-02 6.975564656E+04 1.010840623E+02 2.436857847E+00
 -2.854502883E-01 -2.047588475E-02 6.976378798E+04 1.009897878E+02 2.645341150E+00
 -2.588719596E-01 -1.874635825E-02 6.977309649E+04 1.008817809E+02 2.869729803E+00
 -2.344866759E-01 -1.715614057E-02 6.978374390E+04 1.007579847E+02 3.111153722E+00
 -2.121249547E-01 -1.569490978E-02 6.979592560E+04 1.006160264E+02 3.370791603E+00
 -1.916298857E-01 -1.435310525E-02 6.980986489E+04 1.004531923E+02 3.649880034E+00
 -1.728562235E-01 -1.312186675E-02 6.982581861E+04 1.002663437E+02 3.949776067E+00
 -1.556695442E-01 -1.199297802E-02 6.984408127E+04 1.000518582E+02 4.271946960E+00
 -1.399454627E-01 -1.095881452E-02 6.986499029E+04 9.980555060E+01 4.617981721E+00
 -1.255689043E-01 -1.001229533E-02 6.988893292E+04 9.952257302E+01 4.989616570E+00
 -1.124334282E-01 -9.146839219E-03 6.991635422E+04 9.919729643E+01 5.388767003E+00
 -1.004406001E-01 -8.356324659E-03 6.994776709E+04 9.882314694E+01 5.817560726E+00
 -8.949940785E-02 -7.635053742E-03 6.998376518E+04 9.839242734E+01 6.278373247E+00
 -7.952572031E-02 -6.977719718E-03 7.002503582E+04 9.789605740E+01 6.773867276E+00
 -7.044178399E-02 -6.379378003E-03 7.007238172E+04 9.732330904E+01 7.307045581E+00
 -6.217575600E-02 -5.835420412E-03 7.012674093E+04 9.666121163E+01 7.881335676E+00
 -5.466127051E-02 -5.341552189E-03 7.018922707E+04 9.589441045E+01 8.500670027E+00
 -4.783703627E-02 -4.893771416E-03 7.026110892E+04 9.500357056E+01 9.169550800E+00
 -4.164646310E-02 -4.488350767E-03 7.034381737E+04 9.396932167E+01 9.894421987E+00
 -3.604283489E-02 -4.081525949E-03 7.043829875E+04 9.276974077E+01 1.069575228E+01
 -3.099551787E-02 -3.533489022E-03 7.054550488E+04 9.138083773E+01 1.160255279E+01
 -2.643420361E-02 -3.039031406E-03 7.066847447E+04 8.975838789E+01 1.262555357E+01
 -2.231811038E-02 -2.593617491E-03 7.081097637E+04 8.782662495E+01 1.377826901E+01
 -1.860963851E-02 -2.193053308E-03 7.097732426E+04 8.551857575E+01 1.508919821E+01
 -1.527413322E-02 -1.833464931E-03 7.117119672E+04 8.269364974E+01 1.660915986E+01
 -1.227966467E-02 -1.511277870E-03 7.140182335E+04 7.925340388E+01 1.838309133E+01
 -9.596823822E-03 -1.223197407E-03 7.167007809E+04 7.477270921E+01 2.054917308E+01
 -7.198533165E-03 -9.661897547E-04 7.200220242E+04 6.922341357E+01 2.318718556E+01
 -5.059871037E-03 -7.374639595E-04 7.235562933E+04 6.098234498E+01 2.677858611E+01
 -3.157908704E-03 -5.344539516E-04 7.279962763E+04 5.103963517E+01 3.136413988E+01
 -1.471559062E-03 -3.547997151E-04 7.302520390E+04 3.572679810E+01 4.100767102E+01
 1.856476775E-05 -1.963187265E-04 7.296974807E+04 2.505390593E+01 4.823284808E+01
 -4.916318661E+00 -1.667794339E-01 6.969710611E+04 1.017534767E+02 1.561679408E-02
 -4.541404596E+00 -1.443853892E-01 6.969715178E+04 1.017527363E+02 2.415091045E-02
 -4.194144725E+00 -1.236331927E-01 6.969723273E+04 1.017513404E+02 4.382939872E-02
 -3.872553154E+00 -1.044051171E-01 6.969729348E+04 1.017500292E+02 6.727006966E-02
 -3.574783809E+00 -8.659173547E-02 6.969736691E+04 1.017486449E+02 9.275042863E-02
 -3.297480606E+00 -7.866255642E-02 6.969750525E+04 1.017468136E+02 1.200050176E-01
 -3.040478174E+00 -7.285232411E-02 6.969770053E+04 1.017444709E+02 1.490631915E-01
 -2.802643040E+00 -6.746616488E-02 6.969792238E+04 1.017418553E+02 1.800111416E-01
 -2.582587877E+00 -6.247355446E-02 6.969817532E+04 1.017389022E+02 2.129950933E-01
 -2.379023617E+00 -5.784612334E-02 6.969846779E+04 1.017355266E+02 2.482079122E-01
 -2.190752598E+00 -5.355750615E-02 6.969880293E+04 1.017316853E+02 2.858600603E-01
 -2.016662194E+00 -4.958320207E-02 6.969918571E+04 1.017273159E+02 3.261791853E-01
 -1.855718882E+00 -4.590044530E-02 6.969962317E+04 1.017223383E+02 3.694153414E-01
 -1.706962710E+00 -4.248808499E-02 6.970012291E+04 1.017166646E+02 4.158407488E-01
 -1.569502154E+00 -3.932647375E-02 6.970069349E+04 1.017101945E+02 4.657501085E-01
 -1.442509329E+00 -3.639736419E-02 6.970134495E+04 1.017028116E+02 5.194620752E-01
 -1.325215526E+00 -3.368381292E-02 6.970208885E+04 1.016943813E+02 5.773205107E-01
 -1.216907064E+00 -3.117009138E-02 6.970293852E+04 1.016847483E+02 6.396957268E-01
 -1.116921421E+00 -2.884160297E-02 6.970390937E+04 1.016737332E+02 7.069859245E-01
 -1.024643640E+00 -2.668480610E-02 6.970501920E+04 1.016611286E+02 7.796187183E-01
 -9.395029812E-01 -2.468714255E-02 6.970628855E+04 1.016466945E+02 8.580527029E-01
 -8.609698057E-01 -2.283697080E-02 6.970774118E+04 1.016301535E+02 9.427790814E-01
 -7.885526750E-01 -2.112350393E-02 6.970940450E+04 1.016111848E+02 1.034323340E+00
 -7.217956543E-01 -1.953675163E-02 6.971131018E+04 1.015894176E+02 1.133246976E+00
 -6.602758012E-01 -1.806746600E-02 6.971349476E+04 1.015644234E+02 1.240149286E+00
 -6.036008300E-01 -1.670709081E-02 6.971600039E+04 1.015357070E+02 1.355669136E+00
 -5.514069382E-01 -1.544771389E-02 6.971887567E+04 1.015026967E+02 1.480486807E+00
 -5.033567853E-01 -1.428202230E-02 6.972217659E+04 1.014647326E+02 1.615325924E+00
 -4.591376113E-01 -1.320326004E-02 6.972596763E+04 1.014210534E+02 1.760955892E+00
 -4.184594878E-01 -1.220518810E-02 6.973032297E+04 1.013707815E+02 1.918193341E+00
 -3.810536904E-01 -1.128204656E-02 6.973532789E+04 1.013129052E+02 2.087905611E+00
 -3.466711859E-01 -1.042851850E-02 6.974108044E+04 1.012462593E+02 2.271013651E+00
 -3.150812243E-01 -9.639695792E-03 6.974769324E+04 1.011695053E+02 2.468495717E+00
 -2.860700305E-01 -8.911046392E-03 6.975529507E+04 1.010810877E+02 2.681393531E+00
 -2.594395870E-01 -8.238383293E-03 6.976403329E+04 1.009792254E+02 2.910799276E+00
 -2.350065028E-01 -7.617834961E-03 6.977407802E+04 1.008618984E+02 3.157885527E+00
 -2.126009612E-01 -7.045817378E-03 6.978562456E+04 1.007267502E+02 3.423948291E+00
 -1.920657420E-01 -6.519007660E-03 6.979889478E+04 1.005710619E+02 3.710342692E+00
 -1.732553131E-01 -6.034319393E-03 6.981414238E+04 1.003917204E+02 4.018503304E+00
 -1.560349852E-01 -5.588879736E-03 6.983165922E+04 1.001851221E+02 4.350018387E+00
 -1.402801271E-01 -5.180008420E-03 6.985177989E+04 9.994710272E+01 4.706619537E+00
 -1.258754368E-01 -4.805198701E-03 6.987488773E+04 9.967284380E+01 5.090196932E+00
 -1.127142630E-01 -4.462100362E-03 6.990142295E+04 9.935675265E+01 5.502842327E+00
 -1.006979769E-01 -4.148504781E-03 6.993189253E+04 9.899230204E+01 5.946886947E+00
 -8.973538655E-02 -3.862332061E-03 6.996688288E+04 9.857184911E+01 6.424938713E+00
 -7.974219472E-02 -3.601620151E-03 7.000707298E+04 9.808637097E+01 6.939953631E+00
 -7.064049458E-02 -3.364515864E-03 7.005325500E+04 9.752521673E+01 7.495294464E+00
 -6.235830174E-02 -3.149267651E-03 7.010635300E+04 9.687551276E+01 8.094813907E+00
 -5.482911985E-02 -2.954219817E-03 7.016746474E+04 9.612202805E+01 8.742946144E+00
 -4.799153731E-02 -2.777807950E-03 7.023784000E+04 9.524553223E+01 9.444833267E+00
 -4.178885299E-02 -2.618555447E-03 7.031889408E+04 9.422671150E+01 1.020739757E+01
 -3.617289700E-02 -2.438879702E-03 7.041155736E+04 9.304404835E+01 1.105080656E+01
 -3.110815678E-02 -2.112670405E-03 7.051676866E+04 9.167323932E+01 1.200373050E+01
 -2.653109350E-02 -1.818676126E-03 7.063755025E+04 9.007038460E+01 1.307789473E+01
 -2.240078525E-02 -1.554155102E-03 7.077754100E+04 8.816008594E+01 1.428982877E+01
 -1.867950313E-02 -1.316567192E-03 7.094103262E+04 8.587723604E+01 1.566929450E+01
 -1.533247335E-02 -1.103562648E-03 7.113139080E+04 8.308011434E+01 1.727220560E+01
 -1.232765638E-02 -9.129711783E-04 7.135807532E+04 7.967511394E+01 1.914472852E+01
 -9.635542213E-03 -7.427912542E-04 7.162074604E+04 7.523487426E+01 2.143655203E+01
 -7.228960306E-03 -5.911796180E-04 7.194679960E+04 6.973125273E+01 2.423280857E+01
 -5.082903360E-03 -4.564409099E-04 7.229055841E+04 6.158403368E+01 2.802464688E+01
 -3.174363813E-03 -3.370169339E-04 7.272623462E+04 5.166037098E+01 3.281713044E+01
 -1.482182023E-03 -2.314743845E-04 7.293324347E+04 3.650539786E+01 4.272480098E+01
 1.309555987E-05 -1.384829409E-04 7.286027989E+04 2.603834978E+01 5.012308886E+01
 -4.919121367E+00 4.110405248E-02 6.969608168E+04 1.017575412E+02 1.596957608E-02
 -4.543659909E+00 4.529341233E-02 6.969609223E+04 1.017573681E+02 2.453268647E-02
 -4.195893056E+00 4.918369891E-02 6.969610989E+04 1.017570906E+02 4.427149409E-02
 -3.873832010E+00 5.279620711E-02 6.969612062E+04 1.017568526E+02 6.777349495E-02
 -3.575627998E+00 5.615074886E-02 6.969614392E+04 1.017565282E+02 9.331387199E-02
 -3.298214250E+00 5.261076622E-02 6.969621592E+04 1.017558425E+02 1.206457402E-01
 -3.041159042E+00 4.820563634E-02 6.969633214E+04 1.017547305E+02 1.498093623E-01
 -2.803275080E+00 4.413833170E-02 6.969646937E+04 1.017533770E+02 1.808821850E-01
 -2.583174750E+00 4.038423065E-02 6.969663092E+04 1.017517334E+02 2.140097705E-01
 -2.379568717E+00 3.692046221E-02 6.969682364E+04 1.017497320E+02 2.493883290E-01
 -2.191259072E+00 3.372578456E-02 6.969705037E+04 1.017473361E+02 2.872310377E-01
 -2.017132960E+00 3.078047136E-02 6.969731541E+04 1.017444934E+02 3.277682158E-01
 -1.856156643E+00 2.806620531E-02 6.969762488E+04 1.017411346E+02 3.712536190E-01
 -1.707369973E+00 2.556597864E-02 6.969798558E+04 1.017371820E+02 4.179641251E-01
 -1.569881241E+00 2.326400000E-02 6.969840529E+04 1.017325455E+02 4.681998502E-01
 -1.442862393E+00 2.114560753E-02 6.969889318E+04 1.017271188E+02 5.222857524E-01
 -1.325544561E+00 1.919718760E-02 6.969945996E+04 1.017207780E+02 5.805730227E-01
 -1.217213916E+00 1.740609897E-02 6.970011807E+04 1.017133783E+02 6.434404176E-01
 -1.117207801E+00 1.576060200E-02 6.970088200E+04 1.017047513E+02 7.112958342E-01
 -1.024911135E+00 1.424979269E-02 6.970176861E+04 1.016947002E+02 7.845780099E-01
 -9.397530583E-01 1.286354123E-02 6.970279749E+04 1.016829963E+02 8.637582812E-01
 -8.612038243E-01 1.159243479E-02 6.970399142E+04 1.016693734E+02 9.493424276E-01
 -7.887718942E-01 1.042772448E-02 6.970537681E+04 1.016535220E+02 1.041872583E+00
 -7.220012397E-01 9.361276009E-03 6.970698431E+04 1.016350825E+02 1.141929213E+00
 -6.604688319E-01 8.385524158E-03 6.970884945E+04 1.016136377E+02 1.250133157E+00
 -6.037823047E-01 7.493430673E-03 6.971101335E+04 1.015887036E+02 1.367147738E+00
 -5.515777816E-01 6.678445538E-03 6.971352357E+04 1.015597196E+02 1.493681001E+00
 -5.035178526E-01 5.934471451E-03 6.971643507E+04 1.015260366E+02 1.630488005E+00
 -4.592896939E-01 5.255831360E-03 6.971981129E+04 1.014869040E+02 1.778373281E+00
 -4.186033175E-01 4.637238937E-03 6.972372535E+04 1.014414548E+02 1.938193684E+00
 -3.811899441E-01 4.073771830E-03 6.972826150E+04 1.013886874E+02 2.110861084E+00
 -3.468004889E-01 3.560847556E-03 6.973351667E+04 1.013274469E+02 2.297346433E+00
 -3.152041544E-01 3.094201860E-03 6.973960225E+04 1.012564018E+02 2.498684770E+00
 -2.861871210E-01 2.669869348E-03 6.974664616E+04 1.011740234E+02 2.715978252E+00
 -2.595513302E-01 2.284166209E-03 6.975479472E+04 1.010785309E+02 2.950405509E+00
 -2.351133525E-01 1.933674770E-03 6.976421533E+04 1.009678873E+02 3.203209628E+00
 -2.127033354E-01 1.615229639E-03 6.977510124E+04 1.008397847E+02 3.475733952E+00
 -1.921640256E-01 1.325905193E-03 6.978767390E+04 1.006915260E+02 3.769471818E+00
 -1.733498601E-01 1.063004083E-03 6.980218474E+04 1.005199963E+02 4.085993735E+00
 -1.561261206E-01 8.240465177E-04 6.981892154E+04 1.003216234E+02 4.426979010E+00
 -1.403681496E-01 6.067600272E-04 6.983821525E+04 1.000922704E+02 4.794303105E+00
 -1.259606198E-01 4.090694692E-04 6.986044504E+04 9.982715009E+01 5.190024983E+00
 -1.127968574E-01 2.290870551E-04 6.988604552E+04 9.952071199E+01 5.616420944E+00
 -1.007782121E-01 6.510222256E-05 6.991551681E+04 9.916648393E+01 6.076037493E+00
 -8.981347251E-02 -8.442876262E-05 6.994943677E+04 9.875688965E+01 6.571737567E+00
 -7.981832344E-02 -2.208935319E-04 6.998847402E+04 9.828298587E+01 7.106771166E+00
 -7.071484153E-02 -3.455347011E-04 7.003340804E+04 9.773422401E+01 7.684847282E+00
 -6.243102732E-02 -4.594612350E-04 7.008514633E+04 9.709785768E+01 8.310247455E+00
 -5.490037068E-02 -5.636599463E-04 7.014476669E+04 9.635881077E+01 8.987939318E+00
 -4.806144745E-02 -6.590069506E-04 7.021349513E+04 9.549804766E+01 9.723733371E+00
 -4.185754509E-02 -7.462790564E-04 7.029272839E+04 9.449618263E+01 1.052517109E+01
 -3.623912983E-02 -7.940867118E-04 7.038341244E+04 9.333178589E+01 1.141216309E+01
 -3.116589846E-02 -6.899973888E-04 7.048647895E+04 9.198023771E+01 1.241250846E+01
 -2.658115863E-02 -5.967332859E-04 7.060490741E+04 9.039834073E+01 1.353876341E+01
 -2.244392027E-02 -5.133481091E-04 7.074217829E+04 8.851123569E+01 1.481051077E+01
 -1.871639175E-02 -4.389570656E-04 7.090258782E+04 8.625552226E+01 1.625832729E+01
 -1.536374145E-02 -3.727360458E-04 7.108916766E+04 8.348847803E+01 1.794230506E+01
 -1.235387664E-02 -3.139203568E-04 7.131164046E+04 8.012115902E+01 1.990989182E+01
 -9.657238284E-03 -2.618030143E-04 7.156842184E+04 7.572694766E+01 2.232112333E+01
 -7.246610694E-03 -2.157325924E-04 7.188799021E+04 7.027641754E+01 2.526778289E+01
 -5.096944998E-03 -1.751105833E-04 7.222191587E+04 6.222939812E+01 2.925070880E+01
 -3.185195355E-03 -1.393878923E-04 7.264883638E+04 5.233308270E+01 3.424716120E+01
 -1.490166877E-03 -1.080590405E-04 7.283661572E+04 3.734996682E+01 4.443158422E+01
 7.626351982E-06 -8.064715534E-05 7.274596896E+04 2.709779375E+01 5.201270122E+01
 -4.913313371E+00 2.489252871E-01 6.969505459E+04 1.017616197E+02 1.603612269E-02
 -4.537964640E+00 2.349144091E-01 6.969502973E+04 1.017620184E+02 2.461417488E-02
 -4.190302230E+00 2.219469139E-01 6.969498342E+04 1.017628687E+02 4.439504358E-02
 -3.868337936E+00 2.099477094E-01 6.969494355E+04 1.017637110E+02 6.796314697E-02
 -3.570223531E+00 1.988470206E-01 6.969491644E+04 1.017644507E+02 9.358648907E-02
 -3.293184525E+00 1.838405251E-01 6.969492174E+04 1.017649166E+02 1.210143702E-01
 -3.036525768E+00 1.692232194E-01 6.969495828E+04 1.017650438E+02 1.502860035E-01
 -2.799008699E+00 1.557054043E-01 6.969501020E+04 1.017649615E+02 1.814753937E-01
 -2.579247843E+00 1.432073287E-01 6.969507967E+04 1.017646366E+02 2.147310635E-01
 -2.375955851E+00 1.316548965E-01 6.969517182E+04 1.017640198E+02 2.502533444E-01
 -2.187936661E+00 1.209792730E-01 6.969528918E+04 1.017630811E+02 2.882591510E-01
 -2.014079132E+00 1.111165184E-01 6.969543538E+04 1.017617778E+02 3.289828913E-01
 -1.853351121E+00 1.020072448E-01 6.969561560E+04 1.017600520E+02 3.726828788E-01
 -1.704793959E+00 9.359629774E-02 6.969583581E+04 1.017578364E+02 4.196410395E-01
 -1.567517313E+00 8.583245837E-02 6.969610296E+04 1.017550513E+02 4.701631486E-01
 -1.440694404E+00 7.866816603E-02 6.969642535E+04 1.017516012E+02 5.245805865E-01
 -1.323557551E+00 7.205925987E-02 6.969681278E+04 1.017473729E+02 5.832518967E-01
 -1.215394026E+00 6.596473802E-02 6.969727678E+04 1.017422329E+02 6.465642708E-01
 -1.115542194E+00 6.034653320E-02 6.969783087E+04 1.017360237E+02 7.149352798E-01
 -1.023387921E+00 5.516930383E-02 6.969849093E+04 1.017285603E+02 7.888147511E-01
 -9.383612293E-01 5.040023954E-02 6.969927555E+04 1.017196256E+02 8.686867225E-01
 -8.599331898E-01 4.600888014E-02 6.970020644E+04 1.017089652E+02 9.550714934E-01
 -7.876130216E-01 4.196694732E-02 6.970130897E+04 1.016962815E+02 1.048527767E+00
 -7.209454001E-01 3.824818815E-02 6.970261270E+04 1.016812272E+02 1.149654885E+00
 -6.595079494E-01 3.482822972E-02 6.970415204E+04 1.016633970E+02 1.259095146E+00
 -6.029089089E-01 3.168444430E-02 6.970596702E+04 1.016423192E+02 1.377536227E+00
 -5.507849634E-01 2.879582416E-02 6.970810405E+04 1.016174450E+02 1.505713700E+00
 -5.027992239E-01 2.614286580E-02 6.971061697E+04 1.015881375E+02 1.644413692E+00
 -4.586393491E-01 2.370746271E-02 6.971356806E+04 1.015536577E+02 1.794475796E+00
 -4.180157986E-01 2.147280639E-02 6.971702929E+04 1.015131501E+02 1.956796132E+00
 -3.806602076E-01 1.942329490E-02 6.972108371E+04 1.014656250E+02 2.132330859E+00
 -3.463238755E-01 1.754444872E-02 6.972582703E+04 1.014099388E+02 2.322100523E+00
 -3.147763607E-01 1.582283316E-02 6.973136932E+04 1.013447718E+02 2.527194406E+00
 -2.858041730E-01 1.424598700E-02 6.973783709E+04 1.012686035E+02 2.748777202E+00
 -2.592095590E-01 1.280235694E-02 6.974537560E+04 1.011796851E+02 2.988093756E+00