TITLE     = "fluent22.1.0  build-id: 10213"
VARIABLES = "X"
"Y"
"Pressure"
"X Velocity"
"Y Velocity"
DATASETAUXDATA Common.DensityVar="23"
DATASETAUXDATA Common.PressureVar="3"
DATASETAUXDATA Common.TemperatureVar="12"
DATASETAUXDATA Common.TurbulentDynamicViscosityVar="17"
DATASETAUXDATA Common.UVar="5"
DATASETAUXDATA Common.VectorVarsAreVelocity="TRUE"
DATASETAUXDATA Common.ViscosityVar="25"
DATASETAUXDATA Common.VVar="7"
ZONE T="fluid"
 STRANDID=1, SOLUTIONTIME=1.105
 Nodes=10240, Elements=10080, ZONETYPE=FEQuadrilateral
 DATAPACKING=POINT
 DT=(DOUBLE DOUBLE DOUBLE DOUBLE DOUBLE )
 -4.856290020E+00 -7.872354469E-01 6.970026399E+04 1.017411449E+02 1.330488126E-02
 -4.486976969E+00 -7.104809295E-01 6.970042023E+04 1.017386406E+02 2.188870157E-02
 -4.884823481E+00 -5.813004056E-01 6.969924048E+04 1.017451086E+02 1.439023206E-02
 -4.512990400E+00 -5.226000924E-01 6.969935850E+04 1.017431968E+02 2.301509043E-02
 -4.144904759E+00 -6.393772672E-01 6.970069630E+04 1.017337952E+02 4.174618738E-02
 -4.168584100E+00 -4.682191182E-01 6.969956792E+04 1.017395000E+02 4.293669879E-02
 -3.828117205E+00 -5.735190067E-01 6.970091059E+04 1.017291722E+02 6.546155242E-02
 -3.849635034E+00 -4.178475699E-01 6.969972973E+04 1.017359751E+02 6.669910632E-02
 -3.534795836E+00 -5.125291070E-01 6.970114194E+04 1.017244864E+02 9.120668555E-02
 -3.554312314E+00 -3.711973077E-01 6.969990663E+04 1.017323926E+02 9.251235390E-02
 -3.260733865E+00 -4.703814478E-01 6.970148478E+04 1.017191235E+02 1.186033762E-01
 -3.278689936E+00 -3.404064270E-01 6.970018145E+04 1.017282006E+02 1.200382021E-01
 -3.006583578E+00 -4.340954681E-01 6.970191965E+04 1.017130239E+02 1.476793232E-01
 -3.023144460E+00 -3.142339593E-01 6.970053828E+04 1.017233364E+02 1.492998861E-01
 -2.771387774E+00 -4.005062770E-01 6.970239882E+04 1.017065471E+02 1.786083720E-01
 -2.786657540E+00 -2.900039926E-01 6.970093338E+04 1.017181338E+02 1.804406135E-01
 -2.553774537E+00 -3.694188591E-01 6.970293062E+04 1.016995830E+02 2.115468531E-01
 -2.567849723E+00 -2.675761055E-01 6.970137397E+04 1.017124941E+02 2.136144178E-01
 -2.352469112E+00 -3.406520029E-01 6.970352669E+04 1.016920083E+02 2.466747928E-01
 -2.365439257E+00 -2.468198136E-01 6.970187105E+04 1.017063021E+02 2.490061079E-01
 -2.166287141E+00 -3.140373369E-01 6.970419143E+04 1.016837559E+02 2.841963086E-01
 -2.178235277E+00 -2.276138768E-01 6.970242844E+04 1.016994991E+02 2.868230558E-01
 -1.994128353E+00 -2.894184351E-01 6.970493230E+04 1.016747308E+02 3.243336418E-01
 -2.005131472E+00 -2.098456544E-01 6.970305269E+04 1.016920007E+02 3.272907953E-01
 -1.834970701E+00 -2.666499843E-01 6.970575880E+04 1.016648213E+02 3.673285825E-01
 -1.845100182E+00 -1.934105064E-01 6.970375258E+04 1.016837046E+02 3.706549287E-01
 -1.687864893E+00 -2.455970085E-01 6.970668080E+04 1.016539095E+02 4.134430884E-01
 -1.697186903E+00 -1.782112350E-01 6.970453727E+04 1.016745024E+02 4.171820389E-01
 -1.551929304E+00 -2.261341478E-01 6.970770925E+04 1.016418645E+02 4.629603392E-01
 -1.560505170E+00 -1.641575660E-01 6.970541697E+04 1.016642731E+02 4.671605241E-01
 -1.426345240E+00 -2.081449869E-01 6.970885663E+04 1.016285387E+02 5.161853144E-01
 -1.434231794E+00 -1.511656659E-01 6.970640338E+04 1.016528789E+02 5.209015033E-01
 -1.310352527E+00 -1.915214306E-01 6.971013698E+04 1.016137666E+02 5.734456430E-01
 -1.317602428E+00 -1.391576928E-01 6.970750979E+04 1.016401644E+02 5.787397605E-01
 -1.203245407E+00 -1.761631224E-01 6.971156616E+04 1.015973619E+02 6.350926325E-01
 -1.209907438E+00 -1.280613782E-01 6.970875126E+04 1.016259529E+02 6.410348435E-01
 -1.104368712E+00 -1.619769037E-01 6.971316214E+04 1.015791139E+02 7.015023032E-01
 -1.110488060E+00 -1.178096386E-01 6.971014498E+04 1.016100436E+02 7.081722325E-01
 -1.013114312E+00 -1.488763107E-01 6.971494532E+04 1.015587838E+02 7.730764329E-01
 -1.018732826E+00 -1.083402132E-01 6.971171055E+04 1.015922073E+02 7.805645368E-01
 -9.289178036E-01 -1.367811058E-01 6.971693891E+04 1.015361004E+02 8.502436501E-01
 -9.340742342E-01 -9.959532753E-02 6.971347038E+04 1.015721824E+02 8.586527052E-01
 -8.512554251E-01 -1.256168418E-01 6.971916930E+04 1.015107549E+02 9.334604774E-01
 -8.559856477E-01 -9.152138016E-02 6.971545006E+04 1.015496694E+02 9.429072813E-01
 -7.796411936E-01 -1.153144562E-01 6.972166657E+04 1.014823956E+02 1.023212266E+00
 -7.839784163E-01 -8.406865077E-02 6.971767888E+04 1.015243259E+02 1.033829639E+00
 -7.136242351E-01 -1.058098935E-01 6.972446504E+04 1.014506210E+02 1.120014297E+00
 -7.175991908E-01 -7.719102873E-02 6.972019037E+04 1.014957591E+02 1.131953344E+00
 -6.527863016E-01 -9.704375354E-02 6.972760389E+04 1.014149725E+02 1.224412549E+00
 -6.564274278E-01 -7.084576015E-02 6.972302294E+04 1.014635190E+02 1.237845327E+00
 -5.967394619E-01 -8.896096410E-02 6.973112785E+04 1.013749258E+02 1.336985363E+00
 -6.000730665E-01 -6.499321221E-02 6.972622056E+04 1.014270892E+02 1.352107028E+00
 -5.451239523E-01 -8.151047569E-02 6.973508801E+04 1.013298805E+02 1.458343885E+00
 -5.481743685E-01 -5.959665350E-02 6.972983364E+04 1.013858775E+02 1.475375366E+00
 -4.976061771E-01 -7.464497726E-02 6.973954284E+04 1.012791504E+02 1.589131150E+00
 -5.003959067E-01 -5.462204914E-02 6.973391992E+04 1.013392038E+02 1.608324801E+00
 -4.538768491E-01 -6.832063102E-02 6.974455924E+04 1.012219493E+02 1.730026806E+00
 -4.564266961E-01 -5.003786961E-02 6.973854559E+04 1.012862872E+02 1.751668674E+00
 -4.136492595E-01 -6.249682519E-02 6.975021347E+04 1.011573696E+02 1.881746243E+00
 -4.159784537E-01 -4.581491219E-02 6.974378647E+04 1.012262340E+02 1.906157653E+00
 -3.766576690E-01 -5.713594315E-02 6.975659301E+04 1.010843796E+02 2.045037138E+00
 -3.787839809E-01 -4.192613424E-02 6.974972952E+04 1.011580121E+02 2.072587918E+00
 -3.426558108E-01 -5.220314802E-02 6.976379813E+04 1.010017916E+02 2.220686071E+00
 -3.445956587E-01 -3.834649716E-02 6.975647434E+04 1.010804333E+02 2.251796851E+00
 -3.114154994E-01 -4.766618133E-02 6.977194353E+04 1.009082458E+02 2.409521504E+00
 -3.131840479E-01 -3.505282061E-02 6.976413460E+04 1.009921391E+02 2.444658852E+00
 -2.827253363E-01 -4.349517505E-02 6.978116094E+04 1.008021796E+02 2.612426893E+00
 -2.843365886E-01 -3.202364600E-02 6.977284117E+04 1.008915810E+02 2.652103512E+00
 -2.563895059E-01 -3.966247594E-02 6.979160072E+04 1.006817891E+02 2.830321135E+00
 -2.578563891E-01 -2.923910884E-02 6.978274466E+04 1.007769629E+02 2.875135906E+00
 -2.322266573E-01 -3.614248151E-02 6.980343471E+04 1.005450124E+02 3.064158623E+00
 -2.335611017E-01 -2.668081930E-02 6.979401645E+04 1.006462135E+02 3.114802146E+00
 -2.100688637E-01 -3.291148685E-02 6.981686026E+04 1.003894710E+02 3.314963161E+00
 -2.112818762E-01 -2.433175065E-02 6.980685232E+04 1.004969667E+02 3.372192057E+00
 -1.897606552E-01 -2.994754191E-02 6.983210373E+04 1.002124250E+02 3.583822850E+00
 -1.908623876E-01 -2.217613511E-02 6.982147737E+04 1.003264888E+02 3.648488046E+00
 -1.711581201E-01 -2.723031852E-02 6.984942432E+04 1.000107182E+02 3.871893034E+00
 -1.721579325E-01 -2.019936683E-02 6.983814976E+04 1.001316277E+02 3.944959205E+00
 -1.541280692E-01 -2.474098681E-02 6.986911939E+04 9.978070547E+01 4.180410514E+00
 -1.550345891E-01 -1.838791176E-02 6.985716521E+04 9.990874737E+01 4.262963859E+00
 -1.385472597E-01 -2.246210066E-02 6.989153041E+04 9.951817041E+01 4.510710218E+00
 -1.393684362E-01 -1.672922415E-02 6.987886301E+04 9.965364295E+01 4.603973123E+00
 -1.243016737E-01 -2.037749175E-02 6.991704970E+04 9.921822436E+01 4.864235830E+00
 -1.250448285E-01 -1.521166946E-02 6.990363291E+04 9.936144099E+01 4.969586471E+00
 -1.112858477E-01 -1.847217185E-02 6.994612873E+04 9.887518757E+01 5.242563415E+00
 -1.119577224E-01 -1.382445343E-02 6.993192309E+04 9.902648095E+01 5.361557838E+00
 -9.940225072E-02 -1.673224303E-02 6.997928845E+04 9.848242607E+01 5.647425432E+00
 -1.000090501E-01 -1.255755712E-02 6.996425045E+04 9.864215083E+01 5.781825592E+00
 -8.856070551E-02 -1.514481532E-02 7.001713274E+04 9.803216148E+01 6.080739488E+00
 -8.910813849E-02 -1.140167772E-02 7.000121370E+04 9.820070426E+01 6.232541625E+00
 -7.867785200E-02 -1.369793154E-02 7.006036306E+04 9.751519207E+01 6.544629838E+00
 -7.917116921E-02 -1.034817457E-02 7.004350671E+04 9.769299911E+01 6.716096387E+00
 -6.967664867E-02 -1.238049842E-02 7.010979950E+04 9.692064870E+01 7.041420418E+00
 -7.012067742E-02 -9.389020348E-03 7.009194040E+04 9.710823058E+01 7.235169332E+00
 -6.148590980E-02 -1.118222441E-02 7.016639648E+04 9.623544789E+01 7.573653053E+00
 -6.188508654E-02 -8.516756955E-03 7.014746273E+04 9.643333446E+01 7.792771582E+00
 -5.403987596E-02 -1.009356280E-02 7.023128718E+04 9.544410912E+01 8.144270070E+00
 -5.439827629E-02 -7.724455592E-03 7.021119932E+04 9.565284896E+01 8.392311928E+00
 -4.727781525E-02 -9.105659174E-03 7.030576603E+04 9.452706855E+01 8.756492489E+00
 -4.759918177E-02 -7.005680303E-03 7.028443254E+04 9.474727889E+01 9.037562660E+00
 -4.114365326E-02 -8.210304436E-03 7.039129425E+04 9.346484168E+01 9.415840628E+00
 -4.143142136E-02 -6.354455246E-03 7.036860105E+04 9.369732165E+01 9.734494843E+00
 -3.559384425E-02 -7.351414221E-03 7.048883083E+04 9.223517903E+01 1.014468233E+01
 -3.584982005E-02 -5.720844293E-03 7.046462561E+04 9.248098734E+01 1.050573686E+01
 -3.060777651E-02 -6.361733771E-03 7.059935205E+04 9.081399669E+01 1.097318288E+01
 -3.082871000E-02 -4.951319745E-03 7.057345598E+04 9.107437247E+01 1.138094037E+01
 -2.610182739E-02 -5.468198737E-03 7.072601830E+04 8.915559218E+01 1.190936318E+01
 -2.629108814E-02 -4.256731291E-03 7.069820013E+04 8.943250489E+01 1.236817018E+01
 -2.203570789E-02 -4.662696527E-03 7.087275146E+04 8.718364098E+01 1.296111945E+01
 -2.219638318E-02 -3.630748421E-03 7.084272083E+04 8.747900721E+01 1.347802927E+01
 -1.837227236E-02 -3.937735270E-03 7.104388536E+04 8.482816073E+01 1.415727250E+01
 -1.850718925E-02 -3.067522075E-03 7.101133805E+04 8.514524421E+01 1.473937357E+01
 -1.507728440E-02 -3.286401596E-03 7.124346771E+04 8.195156037E+01 1.553950081E+01
 -1.518903015E-02 -2.561652805E-03 7.120791988E+04 8.229153376E+01 1.619872337E+01
 -1.211919955E-02 -2.702320883E-03 7.148033669E+04 7.844787704E+01 1.715875138E+01
 -1.221014051E-02 -2.108160606E-03 7.144146388E+04 7.881604715E+01 1.790475179E+01
 -9.468963818E-03 -2.179619779E-03 7.175704285E+04 7.390092883E+01 1.912494188E+01
 -9.541262789E-03 -1.702456359E-03 7.171361037E+04 7.429626521E+01 1.998601336E+01
 -7.099826597E-03 -1.712890780E-03 7.209764668E+04 6.827270575E+01 2.151265193E+01
 -7.155458983E-03 -1.340314700E-03 7.204944740E+04 6.870338954E+01 2.252555439E+01
 -4.987167229E-03 -1.297158707E-03 7.246550232E+04 5.986151406E+01 2.477305878E+01
 -5.027935888E-03 -1.017848208E-03 7.240867482E+04 6.037125999E+01 2.598695384E+01
 -3.108334015E-03 -9.278483934E-04 7.292029321E+04 4.988721793E+01 2.903180549E+01
 -3.135883006E-03 -7.314822548E-04 7.285679019E+04 5.040689602E+01 3.043917388E+01
 -1.442494741E-03 -6.007525991E-04 7.316694749E+04 3.421349941E+01 3.837015721E+01
 -1.458322028E-03 -4.779295029E-04 7.308692612E+04 3.488136681E+01 4.000745329E+01
 2.950318352E-05 -3.119902977E-04 7.313312350E+04 2.309220129E+01 4.541314240E+01
 2.403397564E-05 -2.541545121E-04 7.303649773E+04 2.395170735E+01 4.720759219E+01
 -4.904860300E+00 -3.743658139E-01 6.969820309E+04 1.017491652E+02 1.529805450E-02
 -4.531158580E+00 -3.337966777E-01 6.969828548E+04 1.017478292E+02 2.395554016E-02
 -4.185021526E+00 -2.962096430E-01 6.969843209E+04 1.017452635E+02 4.392363843E-02
 -3.864469681E+00 -2.613907770E-01 6.969854465E+04 1.017428327E+02 6.771010248E-02
 -3.567662954E+00 -2.291411999E-01 6.969867060E+04 1.017403437E+02 9.355599198E-02
 -3.290958881E+00 -2.097642799E-01 6.969887847E+04 1.017373217E+02 1.211712559E-01
 -3.034461501E+00 -1.937575362E-01 6.969915643E+04 1.017337008E+02 1.505845949E-01
 -2.797093686E+00 -1.789351073E-01 6.969946692E+04 1.017297715E+02 1.819040897E-01
 -2.577470843E+00 -1.652114479E-01 6.969981587E+04 1.017254513E+02 2.152789572E-01
 -2.374306441E+00 -1.525070637E-01 6.970021321E+04 1.017206383E+02 2.508993538E-01
 -2.186405179E+00 -1.407480896E-01 6.970066238E+04 1.017152820E+02 2.889749351E-01
 -2.012656624E+00 -1.298658967E-01 6.970116913E+04 1.017093093E+02 3.297332379E-01
 -1.852029286E+00 -1.197967280E-01 6.970174141E+04 1.017026286E+02 3.734237141E-01
 -1.703565105E+00 -1.104813591E-01 6.970238764E+04 1.016951415E+02 4.203177574E-01
 -1.566374312E+00 -1.018647825E-01 6.970311724E+04 1.016867373E+02 4.707091874E-01
 -1.439630652E+00 -9.389591456E-02 6.970394110E+04 1.016772882E+02 5.249154351E-01
 -1.322566930E+00 -8.652732242E-02 6.970487170E+04 1.016666488E+02 5.832786161E-01
 -1.214470868E+00 -7.971497040E-02 6.970592329E+04 1.016546526E+02 6.461666956E-01
 -1.114681250E+00 -7.341798393E-02 6.970711221E+04 1.016411087E+02 7.139748009E-01
 -1.022584329E+00 -6.759842999E-02 6.970845719E+04 1.016257981E+02 7.871265904E-01
 -9.376104892E-01 -6.222111283E-02 6.970997979E+04 1.016084691E+02 8.660756699E-01
 -8.592311328E-01 -5.725338377E-02 6.971170471E+04 1.015888325E+02 9.513070578E-01
 -7.869557894E-01 -5.266496422E-02 6.971366036E+04 1.015665555E+02 1.043338651E+00
 -7.203294215E-01 -4.842778072E-02 6.971587940E+04 1.015412553E+02 1.142722740E+00
 -6.589299192E-01 -4.451581131E-02 6.971839935E+04 1.015124916E+02 1.250047490E+00
 -6.023657694E-01 -4.090494213E-02 6.972126332E+04 1.014797574E+02 1.365938560E+00
 -5.502738860E-01 -3.757283373E-02 6.972452086E+04 1.014424694E+02 1.491060771E+00
 -5.023175929E-01 -3.449879607E-02 6.972822886E+04 1.013999563E+02 1.626119466E+00
 -4.581847464E-01 -3.166367166E-02 6.973245270E+04 1.013514461E+02 1.771862295E+00
 -4.175859897E-01 -2.904972626E-02 6.973726738E+04 1.012960501E+02 1.929081785E+00
 -3.802531286E-01 -2.664054633E-02 6.974275904E+04 1.012327464E+02 2.098615691E+00
 -3.459376212E-01 -2.442094299E-02 6.974902664E+04 1.011603615E+02 2.281352650E+00
 -3.144091732E-01 -2.237686183E-02 6.975618317E+04 1.010775358E+02 2.478235480E+00
 -2.854544319E-01 -2.049529820E-02 6.976435793E+04 1.009827106E+02 2.690250522E+00
 -2.588757713E-01 -1.876421779E-02 6.977370014E+04 1.008741172E+02 2.918447144E+00
 -2.344901634E-01 -1.717248199E-02 6.978438124E+04 1.007496974E+02 3.163975789E+00
 -2.121281276E-01 -1.570977804E-02 6.979659614E+04 1.006070767E+02 3.428039845E+00
 -1.916327554E-01 -1.436655369E-02 6.981056752E+04 1.004435411E+02 3.711901055E+00
 -1.728588029E-01 -1.313395624E-02 6.982655151E+04 1.002559507E+02 4.016942002E+00
 -1.556718479E-01 -1.200377598E-02 6.984484189E+04 1.000406811E+02 4.344659866E+00
 -1.399475062E-01 -1.096839383E-02 6.986577522E+04 9.979354467E+01 4.696677812E+00
 -1.255707040E-01 -1.002073326E-02 6.988973770E+04 9.950969090E+01 5.074768816E+00
 -1.124350015E-01 -9.154216218E-03 6.991717323E+04 9.918348688E+01 5.480889240E+00
 -1.004419644E-01 -8.362723194E-03 6.994859344E+04 9.880835369E+01 5.917213926E+00
 -8.950058115E-02 -7.640557111E-03 6.998459042E+04 9.837658795E+01 6.386172193E+00
 -7.952672031E-02 -6.982410927E-03 7.002584978E+04 9.787909931E+01 6.890489809E+00
 -7.044262815E-02 -6.383338694E-03 7.007317234E+04 9.730514713E+01 7.433243830E+00
 -6.217646127E-02 -5.838729902E-03 7.012749379E+04 9.664174239E+01 8.017948518E+00
 -5.466185316E-02 -5.344286610E-03 7.018992515E+04 9.587351125E+01 8.648641513E+00
 -4.783751174E-02 -4.896002993E-03 7.026173115E+04 9.498108143E+01 9.329952301E+00
 -4.164684585E-02 -4.490147231E-03 7.034433661E+04 9.394510698E+01 1.006848304E+01
 -3.604313823E-02 -4.082949983E-03 7.043866708E+04 9.274372760E+01 1.088489273E+01
 -3.099575379E-02 -3.534597766E-03 7.054564227E+04 9.135311401E+01 1.180848693E+01
 -2.643438338E-02 -3.039877335E-03 7.066829468E+04 8.972903372E+01 1.285032739E+01
 -2.231824412E-02 -2.594247598E-03 7.081038185E+04 8.779533772E+01 1.402428394E+01
 -1.860973514E-02 -2.193509191E-03 7.097619652E+04 8.548525765E+01 1.535942371E+01
 -1.527420055E-02 -1.833782982E-03 7.116933620E+04 8.265746844E+01 1.690741464E+01
 -1.227970941E-02 -1.511489540E-03 7.139902116E+04 7.921455107E+01 1.871465639E+01
 -9.596851710E-03 -1.223329530E-03 7.166580395E+04 7.472922422E+01 2.092080536E+01
 -7.198549003E-03 -9.662649078E-04 7.199598292E+04 6.917716613E+01 2.361317203E+01
 -5.059878796E-03 -7.375008349E-04 7.234582097E+04 6.093638746E+01 2.727222355E+01
 -3.157911595E-03 -5.344677171E-04 7.278613252E+04 5.098460024E+01 3.192700885E+01
 -1.471559603E-03 -3.548022971E-04 7.299821681E+04 3.560983428E+01 4.174436076E+01
 1.856476775E-05 -1.963187265E-04 7.293034570E+04 2.488325247E+01 4.910927461E+01
 -4.916318661E+00 -1.667794339E-01 6.969716432E+04 1.017532702E+02 1.588253780E-02
 -4.541405961E+00 -1.443917996E-01 6.969721102E+04 1.017525139E+02 2.456293906E-02
 -4.194147296E+00 -1.236452735E-01 6.969729369E+04 1.017510891E+02 4.457924792E-02
 -3.872556786E+00 -1.044221864E-01 6.969735556E+04 1.017497525E+02 6.842357388E-02
 -3.574788369E+00 -8.661316531E-02 6.969743023E+04 1.017483425E+02 9.434427685E-02
 -3.297485975E+00 -7.868779425E-02 6.969757088E+04 1.017464781E+02 1.220713244E-01
 -3.040484241E+00 -7.288084177E-02 6.969776936E+04 1.017440945E+02 1.516343646E-01
 -2.802649699E+00 -6.749747202E-02 6.969799473E+04 1.017414345E+02 1.831206975E-01
 -2.582595034E+00 -6.250720082E-02 6.969825158E+04 1.017384326E+02 2.166785418E-01
 -2.379031183E+00 -5.788169566E-02 6.969854846E+04 1.017350028E+02 2.525035054E-01
 -2.190760492E+00 -5.359462537E-02 6.969888853E+04 1.017311013E+02 2.908090939E-01
 -2.016670344E+00 -4.962152066E-02 6.969927678E+04 1.017266654E+02 3.318263101E-01
 -1.855727218E+00 -4.593964486E-02 6.969972029E+04 1.017216143E+02 3.758089773E-01
 -1.706971170E+00 -4.252787398E-02 6.970022672E+04 1.017158594E+02 4.230335022E-01
 -1.569510682E+00 -3.936658544E-02 6.970080468E+04 1.017092997E+02 4.737991940E-01
 -1.442517873E+00 -3.643755486E-02 6.970146424E+04 1.017018179E+02 5.284297570E-01
 -1.325224039E+00 -3.372386016E-02 6.970221703E+04 1.016932786E+02 5.872745591E-01
 -1.216915502E+00 -3.120979260E-02 6.970307643E+04 1.016835256E+02 6.507098900E-01
 -1.116929745E+00 -2.888077411E-02 6.970405790E+04 1.016723787E+02 7.191404187E-01
 -1.024651815E+00 -2.672328047E-02 6.970517928E+04 1.016596291E+02 7.930007385E-01
 -9.395109757E-01 -2.472476982E-02 6.970646118E+04 1.016450361E+02 8.727569576E-01
 -8.609775903E-01 -2.287361617E-02 6.970792739E+04 1.016283210E+02 9.589083534E-01
 -7.885602244E-01 -2.115904736E-02 6.970960538E+04 1.016091618E+02 1.051989075E+00
 -7.218029459E-01 -1.957108726E-02 6.971152683E+04 1.015871866E+02 1.152569911E+00
 -6.602828155E-01 -1.810050163E-02 6.971372830E+04 1.015619656E+02 1.261260100E+00
 -6.036075502E-01 -1.673874749E-02 6.971625197E+04 1.015330022E+02 1.378709156E+00
 -5.514133505E-01 -1.547792553E-02 6.971914641E+04 1.014997236E+02 1.505608721E+00
 -5.033628782E-01 -1.431073540E-02 6.972246760E+04 1.014614685E+02 1.642694594E+00
 -4.591433763E-01 -1.323043343E-02 6.972627994E+04 1.014174744E+02 1.790749122E+00
 -4.184649187E-01 -1.223079265E-02 6.973065751E+04 1.013668624E+02 1.950602718E+00
 -3.810587837E-01 -1.130606494E-02 6.973568552E+04 1.013086194E+02 2.123137442E+00
 -3.466759404E-01 -1.045094488E-02 6.974146182E+04 1.012415792E+02 2.309290760E+00
 -3.150856414E-01 -9.660535509E-03 6.974809875E+04 1.011644027E+02 2.510057546E+00
 -2.860741137E-01 -8.930315548E-03 6.975572483E+04 1.010755338E+02 2.726496300E+00
 -2.594433420E-01 -8.256108272E-03 6.976448713E+04 1.009731893E+02 2.959722467E+00
 -2.350099374E-01 -7.634051857E-03 6.977455538E+04 1.008553477E+02 3.210927921E+00
 -2.126040850E-01 -7.060571324E-03 6.978612425E+04 1.007196534E+02 3.481424614E+00
 -1.920685667E-01 -6.532352053E-03 6.979941502E+04 1.005633861E+02 3.772600016E+00
 -1.732578516E-01 -6.046315014E-03 6.981468079E+04 1.003834309E+02 4.085919190E+00
 -1.560372518E-01 -5.599593786E-03 6.983221250E+04 1.001761841E+02 4.422993365E+00
 -1.402821375E-01 -5.189513465E-03 6.985234376E+04 9.993747992E+01 4.785587518E+00
 -1.258772072E-01 -4.813571562E-03 6.987545685E+04 9.966249706E+01 5.175630870E+00
 -1.127158106E-01 -4.469420961E-03 6.990199072E+04 9.934563995E+01 5.595256196E+00
 -1.006993190E-01 -4.154854971E-03 6.993245093E+04 9.898037723E+01 6.046840705E+00
 -8.973654082E-02 -3.867794477E-03 6.996742228E+04 9.855905996E+01 6.533048398E+00
 -7.974317862E-02 -3.606277093E-03 7.000758178E+04 9.807265711E+01 7.056899085E+00
 -7.064132529E-02 -3.368448259E-03 7.005371938E+04 9.751050813E+01 7.621827891E+00
 -6.235899593E-02 -3.152554094E-03 7.010675652E+04 9.685972324E+01 8.231775372E+00
 -5.482969351E-02 -2.956935742E-03 7.016778796E+04 9.610505563E+01 8.891281808E+00
 -4.799200559E-02 -2.780024915E-03 7.023805896E+04 9.522724180E+01 9.605616430E+00
 -4.178923009E-02 -2.620340562E-03 7.031897848E+04 9.420699087E+01 1.038185799E+01
 -3.617319601E-02 -2.440295155E-03 7.041145638E+04 9.302285377E+01 1.124036338E+01
 -3.110838950E-02 -2.113773048E-03 7.051639993E+04 9.165066524E+01 1.221010040E+01
 -2.653127100E-02 -1.819517861E-03 7.063682509E+04 9.004653103E+01 1.330311751E+01
 -2.240091742E-02 -1.554782442E-03 7.077635411E+04 8.813471000E+01 1.453639002E+01
 -1.867959873E-02 -1.317021341E-03 7.093925752E+04 8.585032797E+01 1.594025383E+01
 -1.533254002E-02 -1.103879685E-03 7.112881496E+04 8.305097918E+01 1.757148344E+01
 -1.232770074E-02 -9.131823111E-04 7.135447480E+04 7.964400195E+01 1.947764562E+01
 -9.635569895E-03 -7.429231351E-04 7.161556426E+04 7.520004567E+01 2.180989443E+01
 -7.228976049E-03 -5.912546922E-04 7.193952044E+04 6.969458190E+01 2.466000785E+01
 -5.082911084E-03 -4.564777814E-04 7.227959307E+04 6.154913831E+01 2.851945083E+01
 -3.174366698E-03 -3.370307161E-04 7.271148301E+04 5.161536890E+01 3.338305535E+01
 -1.482182565E-03 -2.314769747E-04 7.290452489E+04 3.640349790E+01 4.346677079E+01
 1.309555987E-05 -1.384829409E-04 7.281875932E+04 2.588996291E+01 5.100580708E+01
 -4.919121367E+00 4.110405248E-02 6.969612241E+04 1.017574042E+02 1.624323744E-02
 -4.543661265E+00 4.528702521E-02 6.969613341E+04 1.017572249E+02 2.495309141E-02
 -4.195895610E+00 4.917166018E-02 6.969615177E+04 1.017569375E+02 4.503061454E-02
 -3.873835619E+00 5.277919453E-02 6.969616281E+04 1.017566926E+02 6.893707099E-02
 -3.575632528E+00 5.612938696E-02 6.969618652E+04 1.017563605E+02 9.491850221E-02
 -3.298219585E+00 5.258560744E-02 6.969625976E+04 1.017556613E+02 1.227237907E-01
 -3.041165070E+00 4.817720806E-02 6.969637789E+04 1.017545294E+02 1.523936540E-01
 -2.803281697E+00 4.410712321E-02 6.969651728E+04 1.017531530E+02 1.840064687E-01
 -2.583181861E+00 4.035069133E-02 6.969668128E+04 1.017514828E+02 2.177097556E-01
 -2.379576234E+00 3.688500448E-02 6.969687684E+04 1.017494503E+02 2.537024932E-01
 -2.191266914E+00 3.368878676E-02 6.969710679E+04 1.017470186E+02 2.922009103E-01
 -2.017141054E+00 3.074228033E-02 6.969737544E+04 1.017441349E+02 3.334386817E-01
 -1.856164921E+00 2.802713886E-02 6.969768896E+04 1.017407295E+02 3.776733423E-01
 -1.707378373E+00 2.552632771E-02 6.969805417E+04 1.017367242E+02 4.251859725E-01
 -1.569889707E+00 2.322403074E-02 6.969847887E+04 1.017320282E+02 4.762813146E-01
 -1.442870873E+00 2.110556314E-02 6.969897229E+04 1.017265348E+02 5.312893953E-01
 -1.325553007E+00 1.915728995E-02 6.969954515E+04 1.017201193E+02 5.905669332E-01
 -1.217222287E+00 1.736655010E-02 6.970020994E+04 1.017126362E+02 6.544986846E-01
 -1.117216058E+00 1.572158542E-02 6.970098118E+04 1.017039163E+02 7.234990367E-01
 -1.024919241E+00 1.421147454E-02 6.970187578E+04 1.016937620E+02 7.980137278E-01
 -9.397609825E-01 1.282607125E-02 6.970291335E+04 1.016819437E+02 8.785216292E-01
 -8.612115383E-01 1.155594721E-02 6.970411670E+04 1.016681943E+02 9.655366144E-01
 -7.887793727E-01 1.039233872E-02 6.970551227E+04 1.016522031E+02 1.059609500E+00
 -7.220084606E-01 9.327097291E-03 6.970713073E+04 1.016336097E+02 1.161330057E+00
 -6.604757758E-01 8.352644040E-03 6.970900760E+04 1.016119957E+02 1.271329083E+00
 -6.037889553E-01 7.461927460E-03 6.971118400E+04 1.015868762E+02 1.390280549E+00
 -5.515841250E-01 6.648384645E-03 6.971370746E+04 1.015576892E+02 1.518903867E+00
 -5.035238780E-01 5.905905711E-03 6.971663290E+04 1.015237848E+02 1.657966268E+00
 -4.592953929E-01 5.228801303E-03 6.972002367E+04 1.014844113E+02 1.808285229E+00
 -4.186086843E-01 4.611773052E-03 6.972395280E+04 1.014387003E+02 1.970731371E+00
 -3.811949754E-01 4.049886845E-03 6.972850439E+04 1.013856495E+02 2.146231547E+00
 -3.468051838E-01 3.538548737E-03 6.973377518E+04 1.013241028E+02 2.335772620E+00
 -3.152085145E-01 3.073483357E-03 6.973987629E+04 1.012527281E+02 2.540406388E+00
 -2.861911501E-01 2.650714614E-03 6.974693530E+04 1.011699960E+02 2.761252209E+00
 -2.595550342E-01 2.266548486E-03 6.975509822E+04 1.010741257E+02 2.999508216E+00
 -2.351167393E-01 1.917557673E-03 6.976453215E+04 1.009630792E+02 3.256442796E+00
 -2.127064149E-01 1.600567837E-03 6.977542958E+04 1.008345448E+02 3.533421563E+00
 -1.921668095E-01 1.312645186E-03 6.978801118E+04 1.006858285E+02 3.831951442E+00
 -1.733523612E-01 1.051085083E-03 6.980252788E+04 1.005138154E+02 4.153637696E+00
 -1.561283535E-01 8.134014173E-04 6.981926667E+04 1.003149293E+02 4.500197784E+00
 -1.403701295E-01 5.973164453E-04 6.983855724E+04 1.000850349E+02 4.873531112E+00
 -1.259623633E-01 4.007508581E-04 6.986077754E+04 9.981934336E+01 5.275733036E+00
 -1.127983812E-01 2.218138441E-04 6.988636092E+04 9.951230143E+01 5.709123663E+00
 -1.007795336E-01 5.879297350E-05 6.991580594E+04 9.915743351E+01 6.176297113E+00
 -8.981460902E-02 -8.985621454E-05 6.994968868E+04 9.874715877E+01 6.680171108E+00
 -7.981929225E-02 -2.255209799E-04 6.998867559E+04 9.827252789E+01 7.224059111E+00
 -7.071565958E-02 -3.494425376E-04 7.003354364E+04 9.772298468E+01 7.811744531E+00
 -6.243171104E-02 -4.627275157E-04 7.008519734E+04 9.708576892E+01 8.447597507E+00
 -5.490093580E-02 -5.663595663E-04 7.014471111E+04 9.634579149E+01 9.136692595E+00
 -4.806190889E-02 -6.612109456E-04 7.021330593E+04 9.548398757E+01 9.884967650E+00
 -4.185791680E-02 -7.480540397E-04 7.029237177E+04 9.448099212E+01 1.070012196E+01
 -3.623942469E-02 -7.954944557E-04 7.038283467E+04 9.331544573E+01 1.160226035E+01
 -3.116612811E-02 -6.910944586E-04 7.048559532E+04 9.196285384E+01 1.261946757E+01
 -2.658133392E-02 -5.975711158E-04 7.060362638E+04 9.038002876E+01 1.376461588E+01
 -2.244405090E-02 -5.139728133E-04 7.074038864E+04 8.849178748E+01 1.505773161E+01
 -1.871648631E-02 -4.394095178E-04 7.090015702E+04 8.623499765E+01 1.652995304E+01
 -1.536380746E-02 -3.730520554E-04 7.108587062E+04 8.346631751E+01 1.824231335E+01
 -1.235392061E-02 -3.141309195E-04 7.130724049E+04 8.009777817E+01 2.024361836E+01
 -9.657265752E-03 -2.619346185E-04 7.156233660E+04 7.570089283E+01 2.269553525E+01
 -7.246626336E-03 -2.158075620E-04 7.187966734E+04 7.024947780E+01 2.569561452E+01
 -5.096952684E-03 -1.751474366E-04 7.220979799E+04 6.220524597E+01 2.974635599E+01
 -3.185198232E-03 -1.394016869E-04 7.263280535E+04 5.229864422E+01 3.481620555E+01
 -1.490167418E-03 -1.080616386E-04 7.280616992E+04 3.726335808E+01 4.517740920E+01
 7.626351982E-06 -8.064715534E-05 7.270236773E+04 2.697028226E+01 5.289863029E+01
 -4.913313371E+00 2.489252871E-01 6.969507780E+04 1.017615524E+02 1.631281595E-02
 -4.537965988E+00 2.349080354E-01 6.969505282E+04 1.017619546E+02 2.503782926E-02
 -4.190304771E+00 2.219348984E-01 6.969500616E+04 1.017628143E+02 4.515800169E-02
 -3.868341527E+00 2.099307272E-01 6.969496577E+04 1.017636681E+02 6.913145774E-02
 -3.570228039E+00 1.988256946E-01 6.969493827E+04 1.017644184E+02 9.519697703E-02
 -3.293189834E+00 1.838154102E-01 6.969494372E+04 1.017648904E+02 1.230995882E-01
 -3.036531766E+00 1.691948427E-01 6.969498087E+04 1.017650189E+02 1.528789149E-01
 -2.799015282E+00 1.556742544E-01 6.969503358E+04 1.017649352E+02 1.846098006E-01
 -2.579254916E+00 1.431738544E-01 6.969510405E+04 1.017646061E+02 2.184427540E-01
 -2.375963327E+00 1.316195095E-01 6.969519745E+04 1.017639814E+02 2.545809143E-01
 -2.187944459E+00 1.209423513E-01 6.969531631E+04 1.017630311E+02 2.932442723E-01
 -2.014087180E+00 1.110784082E-01 6.969546427E+04 1.017617124E+02 3.346706163E-01
 -1.853359351E+00 1.019682635E-01 6.969564651E+04 1.017599670E+02 3.791220638E-01
 -1.704802309E+00 9.355673600E-02 6.969586904E+04 1.017577273E+02 4.268847666E-01
 -1.567525727E+00 8.579258189E-02 6.969613880E+04 1.017549131E+02 4.782691477E-01
 -1.440702830E+00 7.862821762E-02 6.969646412E+04 1.017514285E+02 5.336116782E-01
 -1.323565943E+00 7.201946105E-02 6.969685481E+04 1.017471599E+02 5.932764508E-01
 -1.215402340E+00 6.592529045E-02 6.969732243E+04 1.017419732E+02 6.576566792E-01
 -1.115550392E+00 6.030762003E-02 6.969788052E+04 1.017357103E+02 7.271764461E-01
 -1.023395968E+00 5.513109083E-02 6.969854498E+04 1.017281855E+02 8.022926015E-01
 -9.383690941E-01 5.036287607E-02 6.969933441E+04 1.017191810E+02 8.834967386E-01
 -8.599408437E-01 4.597250002E-02 6.970027054E+04 1.017084417E+02 9.713172708E-01
 -7.876204397E-01 4.193166956E-02 6.970137875E+04 1.016956691E+02 1.066321602E+00
 -7.209525606E-01 3.821411755E-02 6.970268859E+04 1.016805152E+02 1.169118390E+00
 -6.595148330E-01 3.479545741E-02 6.970423448E+04 1.016625737E+02 1.280359904E+00
 -6.029154995E-01 3.165304813E-02 6.970605640E+04 1.016413719E+02 1.400744472E+00
 -5.507912476E-01 2.876586909E-02 6.970820074E+04 1.016163604E+02 1.531019042E+00
 -5.028051909E-01 2.611440419E-02 6.971072125E+04 1.015869010E+02 1.671981885E+00
 -4.586449909E-01 2.368053463E-02 6.971368013E+04 1.015522542E+02 1.824485530E+00
 -4.180211096E-01 2.144743986E-02 6.971714923E+04 1.015115633E+02 1.989439925E+00
 -3.806651847E-01 1.939950621E-02 6.972121143E+04 1.014638379E+02 2.167816018E+00
 -3.463285182E-01 1.752224270E-02 6.972596222E+04 1.014079335E+02 2.360650299E+00
 -3.147806706E-01 1.580220354E-02 6.973151142E+04 1.013425304E+02 2.569048788E+00
 -2.858081543E-01 1.422691687E-02 6.973798516E+04 1.012661064E+02 2.794194896E+00
 -2.592132177E-01 1.278481922E-02 6.974552827E+04 1.011769134E+02 3.037350142E+00