TITLE     = "fluent22.1.0  build-id: 10213"
VARIABLES = "X"
"Y"
"Pressure"
"X Velocity"
"Y Velocity"
DATASETAUXDATA Common.DensityVar="23"
DATASETAUXDATA Common.PressureVar="3"
DATASETAUXDATA Common.TemperatureVar="12"
DATASETAUXDATA Common.TurbulentDynamicViscosityVar="17"
DATASETAUXDATA Common.UVar="5"
DATASETAUXDATA Common.VectorVarsAreVelocity="TRUE"
DATASETAUXDATA Common.ViscosityVar="25"
DATASETAUXDATA Common.VVar="7"
ZONE T="fluid"
 STRANDID=1, SOLUTIONTIME=1.135
 Nodes=10240, Elements=10080, ZONETYPE=FEQuadrilateral
 DATAPACKING=POINT
 DT=(DOUBLE DOUBLE DOUBLE DOUBLE DOUBLE )
 -4.856290020E+00 -7.872354469E-01 6.970040410E+04 1.017406281E+02 1.357839597E-02
 -4.486978903E+00 -7.104896474E-01 6.970056364E+04 1.017380689E+02 2.234477427E-02
 -4.884823481E+00 -5.813004056E-01 6.969935904E+04 1.017446745E+02 1.468913467E-02
 -4.512992312E+00 -5.226087360E-01 6.969947963E+04 1.017427199E+02 2.349733291E-02
 -4.144908399E+00 -6.393936814E-01 6.970084550E+04 1.017331166E+02 4.262509984E-02
 -4.168587700E+00 -4.682353983E-01 6.969969360E+04 1.017389401E+02 4.384293432E-02
 -3.828122343E+00 -5.735421812E-01 6.970106421E+04 1.017283915E+02 6.684670576E-02
 -3.849640115E+00 -4.178705614E-01 6.969985885E+04 1.017353361E+02 6.811231726E-02
 -3.534802279E+00 -5.125581810E-01 6.970130029E+04 1.017236028E+02 9.314244644E-02
 -3.554318690E+00 -3.712261598E-01 6.970003946E+04 1.017316740E+02 9.447730623E-02
 -3.260741448E+00 -4.704156639E-01 6.970165014E+04 1.017181234E+02 1.211252586E-01
 -3.278697441E+00 -3.404403932E-01 6.970031998E+04 1.017273901E+02 1.225916432E-01
 -3.006592143E+00 -4.341341143E-01 6.970209385E+04 1.017118928E+02 1.508229462E-01
 -3.023152939E+00 -3.142723314E-01 6.970068414E+04 1.017224208E+02 1.524785381E-01
 -2.771397176E+00 -4.005486940E-01 6.970258265E+04 1.017052784E+02 1.824127441E-01
 -2.786666848E+00 -2.900461139E-01 6.970108724E+04 1.017171071E+02 1.842839121E-01
 -2.553784642E+00 -3.694644416E-01 6.970312505E+04 1.016981678E+02 2.160540089E-01
 -2.567859727E+00 -2.676213729E-01 6.970153664E+04 1.017113487E+02 2.181647497E-01
 -2.352479797E+00 -3.407001955E-01 6.970373288E+04 1.016904358E+02 2.519303398E-01
 -2.365449834E+00 -2.468676737E-01 6.970204352E+04 1.017050283E+02 2.543094971E-01
 -2.166298293E+00 -3.140876302E-01 6.970441057E+04 1.016820145E+02 2.902499749E-01
 -2.178246316E+00 -2.276638220E-01 6.970261172E+04 1.016980864E+02 2.929296698E-01
 -1.994139870E+00 -2.894703622E-01 6.970516569E+04 1.016728072E+02 3.312396814E-01
 -2.005142870E+00 -2.098972195E-01 6.970324788E+04 1.016904377E+02 3.342553448E-01
 -1.834982487E+00 -2.667031171E-01 6.970600784E+04 1.016627008E+02 3.751462104E-01
 -1.845111845E+00 -1.934632650E-01 6.970396089E+04 1.016819783E+02 3.785371035E-01
 -1.687876861E+00 -2.456509552E-01 6.970694701E+04 1.016515760E+02 4.222369334E-01
 -1.697198745E+00 -1.782647965E-01 6.970475999E+04 1.016725985E+02 4.260469659E-01
 -1.551941376E+00 -2.261885495E-01 6.970799428E+04 1.016393001E+02 4.728009243E-01
 -1.560517112E+00 -1.642115732E-01 6.970565550E+04 1.016621760E+02 4.770792465E-01
 -1.426357343E+00 -2.081995155E-01 6.970916223E+04 1.016257240E+02 5.271495573E-01
 -1.434243764E+00 -1.512197921E-01 6.970665922E+04 1.016505716E+02 5.319514836E-01
 -1.310364595E+00 -1.915757863E-01 6.971046503E+04 1.016106803E+02 5.856173841E-01
 -1.317614359E+00 -1.392116397E-01 6.970778453E+04 1.016376281E+02 5.910054102E-01
 -1.203257378E+00 -1.762170319E-01 6.971191867E+04 1.015939809E+02 6.485631939E-01
 -1.209919271E+00 -1.281148739E-01 6.970904662E+04 1.016231674E+02 6.546080824E-01
 -1.104380532E+00 -1.620301183E-01 6.971354123E+04 1.015754131E+02 7.163710777E-01
 -1.110499740E+00 -1.178624357E-01 6.971046278E+04 1.016069870E+02 7.231530798E-01
 -1.013125932E+00 -1.489286047E-01 6.971535325E+04 1.015547362E+02 7.894515154E-01
 -1.018744304E+00 -1.083920876E-01 6.971205271E+04 1.015888559E+02 7.970617394E-01
 -9.289291763E-01 -1.368322751E-01 6.971737806E+04 1.015316768E+02 8.682424990E-01
 -9.340854651E-01 -9.964607664E-02 6.971383892E+04 1.015685104E+02 8.767844059E-01
 -8.512665106E-01 -1.256667028E-01 6.971964216E+04 1.015059240E+02 9.532106398E-01
 -8.559965912E-01 -9.157082202E-02 6.971584711E+04 1.015456494E+02 9.628017291E-01
 -7.796519555E-01 -1.153628449E-01 6.972217575E+04 1.014771238E+02 1.044852143E+00
 -7.839890365E-01 -8.411662303E-02 6.971810667E+04 1.015199282E+02 1.055625946E+00
 -7.136346409E-01 -1.058566646E-01 6.972501328E+04 1.014448724E+02 1.143693974E+00
 -7.176094558E-01 -7.723738783E-02 6.972065121E+04 1.014909522E+02 1.155802295E+00
 -6.527963229E-01 -9.708877998E-02 6.972819399E+04 1.014087088E+02 1.250294652E+00
 -6.564373097E-01 -7.089038066E-02 6.972351919E+04 1.014582690E+02 1.263910211E+00
 -5.967490742E-01 -8.900413627E-02 6.973176269E+04 1.013681064E+02 1.365245853E+00
 -6.000825415E-01 -6.503598628E-02 6.972675467E+04 1.014213603E+02 1.380564579E+00
 -5.451331348E-01 -8.155170114E-02 6.973577054E+04 1.013224625E+02 1.489172943E+00
 -5.481834162E-01 -5.963749043E-02 6.973040806E+04 1.013796316E+02 1.506416647E+00
 -4.976149126E-01 -7.468418032E-02 6.974027604E+04 1.012710881E+02 1.622734995E+00
 -5.004045106E-01 -5.466087499E-02 6.973453715E+04 1.013324007E+02 1.642156274E+00
 -4.538851241E-01 -6.835775256E-02 6.974534607E+04 1.012131950E+02 1.766627357E+00
 -4.564348434E-01 -5.007462689E-02 6.973920806E+04 1.012788846E+02 1.788513213E+00
 -4.136570642E-01 -6.253182229E-02 6.975105691E+04 1.011478742E+02 1.921583746E+00
 -4.159861349E-01 -4.584955958E-02 6.974449659E+04 1.012181863E+02 1.946255916E+00
 -3.766649968E-01 -5.716878887E-02 6.975749604E+04 1.010740894E+02 2.088371934E+00
 -3.787911903E-01 -4.195864627E-02 6.975048966E+04 1.011492744E+02 2.116198692E+00
 -3.426626589E-01 -5.223383105E-02 6.976476331E+04 1.009906504E+02 2.267796453E+00
 -3.446023936E-01 -3.837686387E-02 6.975728656E+04 1.010709574E+02 2.299200561E+00
 -3.114218683E-01 -4.769470569E-02 6.977297320E+04 1.008961990E+02 2.460707255E+00
 -3.131903095E-01 -3.508104716E-02 6.976500065E+04 1.009818729E+02 2.496158786E+00
 -2.827312296E-01 -4.352155956E-02 6.978225743E+04 1.007891680E+02 2.668012587E+00
 -2.843423808E-01 -3.204975218E-02 6.977376268E+04 1.008804727E+02 2.708023757E+00
 -2.563949307E-01 -3.968675371E-02 6.979276604E+04 1.006677510E+02 2.890656481E+00
 -2.578617194E-01 -2.926312846E-02 6.978372286E+04 1.007649590E+02 2.935821090E+00
 -2.322316235E-01 -3.616469917E-02 6.980467019E+04 1.005298859E+02 3.129619899E+00
 -2.335659801E-01 -2.670279948E-02 6.979505202E+04 1.006332585E+02 3.180629051E+00
 -2.100733842E-01 -3.293170376E-02 6.981816663E+04 1.003731928E+02 3.385954860E+00
 -2.112863158E-01 -2.435175094E-02 6.980794536E+04 1.004830034E+02 3.443571507E+00
 -1.897647454E-01 -2.996582911E-02 6.983348112E+04 1.001949289E+02 3.660781139E+00
 -1.908664039E-01 -2.219422647E-02 6.982262724E+04 1.003114591E+02 3.725855633E+00
 -1.711617978E-01 -2.724675755E-02 6.985087218E+04 9.999193491E+01 3.955289182E+00
 -1.721615434E-01 -2.021563048E-02 6.983935500E+04 1.001154712E+02 4.028783540E+00
 -1.541313544E-01 -2.475566843E-02 6.987063624E+04 9.976056344E+01 4.270752943E+00
 -1.550378144E-01 -1.840243785E-02 6.985842345E+04 9.989140081E+01 4.353753755E+00
 -1.385501742E-01 -2.247512340E-02 6.989311368E+04 9.949659515E+01 4.608547087E+00
 -1.393712975E-01 -1.674211038E-02 6.988017075E+04 9.963504106E+01 4.702277492E+00
 -1.243042406E-01 -2.038896034E-02 6.991869564E+04 9.919513695E+01 4.970163313E+00
 -1.250473487E-01 -1.522301952E-02 6.990498530E+04 9.934151464E+01 5.076002082E+00
 -1.112880914E-01 -1.848219562E-02 6.994783251E+04 9.885050013E+01 5.357230169E+00
 -1.119599254E-01 -1.383437541E-02 6.993331412E+04 9.900515253E+01 5.476734178E+00
 -9.940419618E-02 -1.674093425E-02 6.998104402E+04 9.845603973E+01 5.771535489E+00
 -1.000109606E-01 -1.256616196E-02 6.996567273E+04 9.861933446E+01 5.906468298E+00
 -8.856237805E-02 -1.515228756E-02 7.001893229E+04 9.800396794E+01 6.215064642E+00
 -8.910978127E-02 -1.140907754E-02 7.000265777E+04 9.817630785E+01 6.367421451E+00
 -7.867927691E-02 -1.370429809E-02 7.006219676E+04 9.748506968E+01 6.690019694E+00
 -7.917256913E-02 -1.035448118E-02 7.004496090E+04 9.766691865E+01 6.862061457E+00
 -6.967785089E-02 -1.238587080E-02 7.011165561E+04 9.688845540E+01 7.198813842E+00
 -7.012185892E-02 -9.394343755E-03 7.009339085E+04 9.708034354E+01 7.393160627E+00
 -6.148691360E-02 -1.118671097E-02 7.016826109E+04 9.620101022E+01 7.744094110E+00
 -6.188607340E-02 -8.521204060E-03 7.014889292E+04 9.640349124E+01 7.963836348E+00
 -5.404070467E-02 -1.009726756E-02 7.023314390E+04 9.540722117E+01 8.328931234E+00
 -5.439909133E-02 -7.728129020E-03 7.021258977E+04 9.562087170E+01 8.577624660E+00
 -4.727849097E-02 -9.108680796E-03 7.030759431E+04 9.448746358E+01 8.956696073E+00
 -4.759984664E-02 -7.008677408E-03 7.028575910E+04 9.471293531E+01 9.238448001E+00
 -4.114419675E-02 -8.212735395E-03 7.039306643E+04 9.342228528E+01 9.633108854E+00
 -4.143195637E-02 -6.356867313E-03 7.036983182E+04 9.366041450E+01 9.952468149E+00
 -3.559427453E-02 -7.353339732E-03 7.049049025E+04 9.218954014E+01 1.038077794E+01
 -3.585024385E-02 -5.722755645E-03 7.046570044E+04 9.244141437E+01 1.074258560E+01
 -3.060811049E-02 -6.363230763E-03 7.060079908E+04 9.076538801E+01 1.123024938E+01
 -3.082903929E-02 -4.952806912E-03 7.057427239E+04 9.103226878E+01 1.163882703E+01
 -2.610208137E-02 -5.469339167E-03 7.072714961E+04 8.910407096E+01 1.218995435E+01
 -2.629133884E-02 -4.257865156E-03 7.069865000E+04 8.938797132E+01 1.264959685E+01
 -2.203589643E-02 -4.663544690E-03 7.087345581E+04 8.712866530E+01 1.326834124E+01
 -2.219656949E-02 -3.631592400E-03 7.084268809E+04 8.743153330E+01 1.378601102E+01
 -1.837240828E-02 -3.938347949E-03 7.104402354E+04 8.476958066E+01 1.449494502E+01
 -1.850732373E-02 -3.068132247E-03 7.101068013E+04 8.509471895E+01 1.507754283E+01
 -1.507737887E-02 -3.286828345E-03 7.124279349E+04 8.188837477E+01 1.591232423E+01
 -1.518912374E-02 -2.562078174E-03 7.120638280E+04 8.223681394E+01 1.657191595E+01
 -1.211926218E-02 -2.702604420E-03 7.147860666E+04 7.838094486E+01 1.757283076E+01
 -1.221020263E-02 -2.108443476E-03 7.143880336E+04 7.875786057E+01 1.831918455E+01
 -9.469002747E-03 -2.179796453E-03 7.175365888E+04 7.382594392E+01 1.958727510E+01
 -9.541301458E-03 -1.702632779E-03 7.170918115E+04 7.423111030E+01 2.044959584E+01
 -7.099848643E-03 -1.712991088E-03 7.209227617E+04 6.819169902E+01 2.203838512E+01
 -7.155480915E-03 -1.340414959E-03 7.204284940E+04 6.863353385E+01 2.305357698E+01
 -4.987177995E-03 -1.297207824E-03 7.245603695E+04 5.976901225E+01 2.537840505E+01
 -5.027946616E-03 -1.017897351E-03 7.239786077E+04 6.029167931E+01 2.659536770E+01
 -3.108338011E-03 -9.278666817E-04 7.290796393E+04 4.978244234E+01 2.970238389E+01
 -3.135886996E-03 -7.315005759E-04 7.284296682E+04 5.031070224E+01 3.111919448E+01
 -1.442495485E-03 -6.007560178E-04 7.313743511E+04 3.390876651E+01 3.927939270E+01
 -1.458322772E-03 -4.779329332E-04 7.305505416E+04 3.460091865E+01 4.093151026E+01
 2.950318352E-05 -3.119902977E-04 7.308609240E+04 2.258706098E+01 4.653790682E+01
 2.403397564E-05 -2.541545121E-04 7.298636445E+04 2.349226224E+01 4.834690330E+01
 -4.904860300E+00 -3.743658139E-01 6.969829981E+04 1.017488159E+02 1.561866802E-02
 -4.531160472E+00 -3.338052606E-01 6.969838410E+04 1.017474489E+02 2.446011113E-02
 -4.185025090E+00 -2.962258138E-01 6.969853410E+04 1.017448236E+02 4.485300187E-02
 -3.864474715E+00 -2.614136201E-01 6.969864919E+04 1.017423367E+02 6.914670065E-02
 -3.567669270E+00 -2.291698728E-01 6.969877789E+04 1.017397911E+02 9.554472907E-02
 -3.290966319E+00 -2.097980430E-01 6.969899019E+04 1.017367017E+02 1.237500280E-01
 -3.034469905E+00 -1.937956846E-01 6.969927395E+04 1.017330017E+02 1.537913534E-01
 -2.797102912E+00 -1.789769861E-01 6.969959079E+04 1.017289880E+02 1.857787270E-01
 -2.577480758E+00 -1.652564560E-01 6.969994675E+04 1.017245765E+02 2.198641860E-01
 -2.374316924E+00 -1.525546496E-01 6.970035193E+04 1.017196637E+02 2.562415996E-01
 -2.186416119E+00 -1.407977472E-01 6.970080978E+04 1.017141986E+02 2.951247697E-01
 -2.012667918E+00 -1.299171622E-01 6.970132611E+04 1.017081070E+02 3.367457647E-01
 -1.852040841E+00 -1.198491763E-01 6.970190895E+04 1.017012964E+02 3.813590340E-01
 -1.703576835E+00 -1.105346010E-01 6.970256682E+04 1.016936672E+02 4.292414350E-01
 -1.566386138E+00 -1.019184620E-01 6.970330921E+04 1.016851073E+02 4.806927286E-01
 -1.439642503E+00 -9.394970602E-02 6.970414711E+04 1.016754881E+02 5.360367923E-01
 -1.322578740E+00 -8.658092879E-02 6.970509306E+04 1.016646625E+02 5.956227202E-01
 -1.214482578E+00 -7.976812096E-02 6.970616143E+04 1.016524627E+02 6.598260162E-01
 -1.114692806E+00 -7.347043259E-02 6.970736862E+04 1.016386964E+02 7.290499387E-01
 -1.022595681E+00 -6.764995378E-02 6.970873347E+04 1.016231430E+02 8.037269050E-01
 -9.376215935E-01 -6.227151051E-02 6.971027760E+04 1.016055490E+02 8.843199440E-01
 -8.592419494E-01 -5.730247472E-02 6.971202582E+04 1.015856237E+02 9.713242042E-01
 -7.869662828E-01 -5.271258746E-02 6.971400660E+04 1.015630325E+02 1.065268469E+00
 -7.203395603E-01 -4.847379411E-02 6.971625266E+04 1.015373907E+02 1.166716723E+00
 -6.589396762E-01 -4.456009084E-02 6.971880157E+04 1.015082561E+02 1.276269663E+00
 -6.023751210E-01 -4.094738142E-02 6.972169647E+04 1.014751199E+02 1.394566368E+00
 -5.502828126E-01 -3.761334352E-02 6.972498692E+04 1.014373969E+02 1.522285963E+00
 -5.023260784E-01 -3.453730387E-02 6.972872982E+04 1.013944137E+02 1.660149276E+00
 -4.581927785E-01 -3.170012139E-02 6.973299048E+04 1.013453965E+02 1.808920336E+00
 -4.175935595E-01 -2.908407793E-02 6.973784382E+04 1.012894546E+02 1.969408991E+00
 -3.802602308E-01 -2.667277573E-02 6.974337588E+04 1.012255641E+02 2.142472816E+00
 -3.459442537E-01 -2.445104130E-02 6.974968535E+04 1.011525503E+02 2.329020189E+00
 -3.144153373E-01 -2.240483519E-02 6.975688493E+04 1.010690528E+02 2.530014014E+00
 -2.854601322E-01 -2.052116724E-02 6.976510372E+04 1.009735112E+02 2.746466698E+00
 -2.588810154E-01 -1.878801697E-02 6.977449057E+04 1.008641508E+02 2.979455171E+00
 -2.344949616E-01 -1.719425886E-02 6.978521607E+04 1.007389173E+02 3.230142790E+00
 -2.121324932E-01 -1.572959237E-02 6.979747461E+04 1.005954367E+02 3.499770255E+00
 -1.916367040E-01 -1.438447645E-02 6.981148847E+04 1.004309868E+02 3.789643386E+00
 -1.728623523E-01 -1.315006841E-02 6.982751268E+04 1.002424301E+02 4.101165777E+00
 -1.556750179E-01 -1.201816729E-02 6.984583984E+04 1.000261407E+02 4.435871709E+00
 -1.399503182E-01 -1.098116132E-02 6.986680540E+04 9.977792888E+01 4.795428877E+00
 -1.255731808E-01 -1.003197980E-02 6.989079419E+04 9.949294040E+01 5.181658543E+00
 -1.124371666E-01 -9.164048952E-03 6.991824875E+04 9.916553481E+01 5.596569324E+00
 -1.004438422E-01 -8.371251952E-03 6.994967918E+04 9.878912688E+01 6.042393535E+00
 -8.950219602E-02 -7.647892855E-03 6.998567525E+04 9.835600895E+01 6.521628562E+00
 -7.952809672E-02 -6.988664235E-03 7.002692003E+04 9.785708022E+01 7.037079969E+00
 -7.044379009E-02 -6.388618346E-03 7.007421194E+04 9.728158393E+01 7.591918689E+00
 -6.217743207E-02 -5.843141581E-03 7.012848356E+04 9.661650816E+01 8.189768369E+00
 -5.466265521E-02 -5.347931768E-03 7.019084241E+04 9.584645614E+01 8.834798890E+00
 -4.783816627E-02 -4.898977880E-03 7.026254778E+04 9.495201060E+01 9.531799335E+00
 -4.164737275E-02 -4.492542116E-03 7.034501637E+04 9.391385667E+01 1.028757010E+01
 -3.604355584E-02 -4.084848403E-03 7.043914691E+04 9.271022151E+01 1.112300861E+01
 -3.099607857E-02 -3.536075853E-03 7.054581745E+04 9.131748168E+01 1.206778630E+01
 -2.643463088E-02 -3.041005050E-03 7.066805311E+04 8.969141174E+01 1.313335743E+01
 -2.231842825E-02 -2.595087590E-03 7.080959523E+04 8.775534277E+01 1.433403151E+01
 -1.860986819E-02 -2.194116919E-03 7.097471243E+04 8.544286896E+01 1.569948724E+01
 -1.527429324E-02 -1.834206963E-03 7.116689133E+04 8.261154351E+01 1.728247991E+01
 -1.227977102E-02 -1.511771704E-03 7.139536609E+04 7.916568060E+01 1.913071800E+01
 -9.596890108E-03 -1.223505653E-03 7.166025955E+04 7.467420980E+01 2.138598839E+01
 -7.198570812E-03 -9.663650859E-04 7.198810558E+04 6.911867386E+01 2.414243435E+01
 -5.059889481E-03 -7.375499882E-04 7.233359099E+04 6.086979341E+01 2.788279580E+01
 -3.157915577E-03 -5.344860654E-04 7.277073969E+04 5.089887304E+01 3.261501452E+01
 -1.471560349E-03 -3.548057385E-04 7.296402115E+04 3.535498502E+01 4.268034563E+01
 1.856476775E-05 -1.963187265E-04 7.287723629E+04 2.446808206E+01 5.026002376E+01
 -4.916318661E+00 -1.667794339E-01 6.969723916E+04 1.017530069E+02 1.621806549E-02
 -4.541407837E+00 -1.444003358E-01 6.969728711E+04 1.017522314E+02 2.508285468E-02
 -4.194150831E+00 -1.236613606E-01 6.969737197E+04 1.017507705E+02 4.552482279E-02
 -3.872561779E+00 -1.044449161E-01 6.969743545E+04 1.017494008E+02 6.987737664E-02
 -3.574794636E+00 -8.664170172E-02 6.969751190E+04 1.017479568E+02 9.635151341E-02
 -3.297493356E+00 -7.872140157E-02 6.969765570E+04 1.017460492E+02 1.246706210E-01
 -3.040492580E+00 -7.291881677E-02 6.969785843E+04 1.017436123E+02 1.548644007E-01
 -2.802658854E+00 -6.753916184E-02 6.969808850E+04 1.017408943E+02 1.870216179E-01
 -2.582604873E+00 -6.255200594E-02 6.969835057E+04 1.017378285E+02 2.212932551E-01
 -2.379041585E+00 -5.792906586E-02 6.969865332E+04 1.017343275E+02 2.578787113E-01
 -2.190771346E+00 -5.364405595E-02 6.969899991E+04 1.017303472E+02 2.969956739E-01
 -2.016681547E+00 -4.967254893E-02 6.969939540E+04 1.017258242E+02 3.388796962E-01
 -1.855738678E+00 -4.599184686E-02 6.969984693E+04 1.017206766E+02 3.837896279E-01
 -1.706982802E+00 -4.258086153E-02 6.970036221E+04 1.017148150E+02 4.320073698E-01
 -1.569522408E+00 -3.942000344E-02 6.970094993E+04 1.017081375E+02 4.838381986E-01
 -1.442529621E+00 -3.649107878E-02 6.970162024E+04 1.017005258E+02 5.396122910E-01
 -1.325235744E+00 -3.377719385E-02 6.970238482E+04 1.016918432E+02 5.996860210E-01
 -1.216927105E+00 -3.126266632E-02 6.970325713E+04 1.016819324E+02 6.644432444E-01
 -1.116941192E+00 -2.893294277E-02 6.970425271E+04 1.016706118E+02 7.342967885E-01
 -1.024663057E+00 -2.677452208E-02 6.970538945E+04 1.016576716E+02 8.096900320E-01
 -9.395219684E-01 -2.477488420E-02 6.970668803E+04 1.016428694E+02 8.910985319E-01
 -8.609882949E-01 -2.292242377E-02 6.970817231E+04 1.016259251E+02 9.790317191E-01
 -7.885706057E-01 -2.120638831E-02 6.970986979E+04 1.016065153E+02 1.074034646E+00
 -7.218129731E-01 -1.961682053E-02 6.971181221E+04 1.015842664E+02 1.176689801E+00
 -6.602924616E-01 -1.814450440E-02 6.971403617E+04 1.015587467E+02 1.287618950E+00
 -6.036167923E-01 -1.678091452E-02 6.971658383E+04 1.015294585E+02 1.407485027E+00
 -5.514221693E-01 -1.551816877E-02 6.971950377E+04 1.014958268E+02 1.536994027E+00
 -5.033712583E-01 -1.434898352E-02 6.972285193E+04 1.014571889E+02 1.676897101E+00
 -4.591513055E-01 -1.326663150E-02 6.972669263E+04 1.014127805E+02 1.827992971E+00
 -4.184723888E-01 -1.226490179E-02 6.973109987E+04 1.013617211E+02 1.991129703E+00
 -3.810657897E-01 -1.133806195E-02 6.973615868E+04 1.013029959E+02 2.167208228E+00
 -3.466824808E-01 -1.048082190E-02 6.974196667E+04 1.012354373E+02 2.357186160E+00
 -3.150917178E-01 -9.688299541E-03 6.974863581E+04 1.011577057E+02 2.562078670E+00
 -2.860797310E-01 -8.955987928E-03 6.975629434E+04 1.010682443E+02 2.782968299E+00
 -2.594485080E-01 -8.279724033E-03 6.976508926E+04 1.009652672E+02 3.020999857E+00
 -2.350146628E-01 -7.655658971E-03 6.977518929E+04 1.008467466E+02 3.277391253E+00
 -2.126083833E-01 -7.080229807E-03 6.978678795E+04 1.007103356E+02 3.553465672E+00
 -1.920724534E-01 -6.550132935E-03 6.980010640E+04 1.005533125E+02 3.850654471E+00
 -1.732613447E-01 -6.062299174E-03 6.981539718E+04 1.003725523E+02 4.170471597E+00
 -1.560403710E-01 -5.613870659E-03 6.983294956E+04 1.001644561E+02 4.514549728E+00
 -1.402849041E-01 -5.202179648E-03 6.985309575E+04 9.992485799E+01 4.884695312E+00
 -1.258796438E-01 -4.824729330E-03 6.987621672E+04 9.964893266E+01 5.282889747E+00
 -1.127179406E-01 -4.479176730E-03 6.990274997E+04 9.933107854E+01 5.711316917E+00
 -1.007011663E-01 -4.163317749E-03 6.993319931E+04 9.896475818E+01 6.172410098E+00
 -8.973812959E-02 -3.875074317E-03 6.996814716E+04 9.854231779E+01 6.668905297E+00
 -7.974453294E-02 -3.612483619E-03 7.000826775E+04 9.805471859E+01 7.203903133E+00
 -7.064246879E-02 -3.373689269E-03 7.005434816E+04 9.749128806E+01 7.780929743E+00
 -6.235995154E-02 -3.156934294E-03 7.010730638E+04 9.683911642E+01 8.404036196E+00
 -5.483048323E-02 -2.960555632E-03 7.016823317E+04 9.608293812E+01 9.077895991E+00
 -4.799265026E-02 -2.782979836E-03 7.023836785E+04 9.520344999E+01 9.807937642E+00
 -4.178974924E-02 -2.622719936E-03 7.031911082E+04 9.418139157E+01 1.060143664E+01
 -3.617360767E-02 -2.442181842E-03 7.041134557E+04 9.299540777E+01 1.147898754E+01
 -3.110870992E-02 -2.115242784E-03 7.051593863E+04 9.162150363E+01 1.246992458E+01
 -2.653151539E-02 -1.820639827E-03 7.063589885E+04 9.001581314E+01 1.358667158E+01
 -2.240109940E-02 -1.555618633E-03 7.077482489E+04 8.810212171E+01 1.484676934E+01
 -1.867973035E-02 -1.317626682E-03 7.093696465E+04 8.581596036E+01 1.628116691E+01
 -1.533263182E-02 -1.104302265E-03 7.112547929E+04 8.301381106E+01 1.794775429E+01
 -1.232776182E-02 -9.134637290E-04 7.134983496E+04 7.960465506E+01 1.989530185E+01
 -9.635608013E-03 -7.430989171E-04 7.160890534E+04 7.515540379E+01 2.227714414E+01
 -7.228997727E-03 -5.913547564E-04 7.193036454E+04 6.964741563E+01 2.519101281E+01
 -5.082921721E-03 -4.565269259E-04 7.226592802E+04 6.149515922E+01 2.913259340E+01
 -3.174370670E-03 -3.370490857E-04 7.269449205E+04 5.154149807E+01 3.407815021E+01
 -1.482183311E-03 -2.314804270E-04 7.286801820E+04 3.617440253E+01 4.441045648E+01
 1.309555987E-05 -1.384829409E-04 7.276271172E+04 2.551600494E+01 5.216183965E+01
 -4.919121367E+00 4.110405248E-02 6.969617532E+04 1.017572276E+02 1.658899678E-02
 -4.543663128E+00 4.527852068E-02 6.969618690E+04 1.017570408E+02 2.548381425E-02
 -4.195899121E+00 4.915563050E-02 6.969620626E+04 1.017567408E+02 4.598815439E-02
 -3.873840580E+00 5.275654219E-02 6.969621797E+04 1.017564855E+02 7.040393821E-02
 -3.575638756E+00 5.610094353E-02 6.969624252E+04 1.017561420E+02 9.693981157E-02
 -3.298226919E+00 5.255210836E-02 6.969631762E+04 1.017554239E+02 1.253384929E-01
 -3.041173357E+00 4.813935544E-02 6.969643845E+04 1.017542648E+02 1.556409696E-01
 -2.803290793E+00 4.406556853E-02 6.969658087E+04 1.017528570E+02 1.879268506E-01
 -2.583191636E+00 4.030603283E-02 6.969674829E+04 1.017511505E+02 2.223463682E-01
 -2.379586567E+00 3.683779128E-02 6.969694773E+04 1.017490756E+02 2.591023261E-01
 -2.191277695E+00 3.363952255E-02 6.969718204E+04 1.017465953E+02 2.984151455E-01
 -2.017152181E+00 3.069142690E-02 6.969745558E+04 1.017436562E+02 3.405230532E-01
 -1.856176301E+00 2.797511928E-02 6.969777454E+04 1.017401881E+02 3.856886249E-01
 -1.707389921E+00 2.547352937E-02 6.969814581E+04 1.017361118E+02 4.341984579E-01
 -1.569901346E+00 2.317080799E-02 6.969857725E+04 1.017313359E+02 4.863632856E-01
 -1.442882531E+00 2.105223974E-02 6.969907810E+04 1.017257529E+02 5.425196335E-01
 -1.325564621E+00 1.910416131E-02 6.969965918E+04 1.017192371E+02 6.030312542E-01
 -1.217233796E+00 1.731388522E-02 6.970033300E+04 1.017116422E+02 6.682904994E-01
 -1.117227409E+00 1.566962865E-02 6.970111416E+04 1.017027977E+02 7.387199444E-01
 -1.024930386E+00 1.416044709E-02 6.970201959E+04 1.016925051E+02 8.147741427E-01
 -9.397718785E-01 1.277617252E-02 6.970306896E+04 1.016805335E+02 8.969414433E-01
 -8.612221456E-01 1.150735593E-02 6.970428512E+04 1.016666146E+02 9.857458994E-01
 -7.887896566E-01 1.034521392E-02 6.970569454E+04 1.016504365E+02 1.081749254E+00
 -7.220183904E-01 9.281579140E-03 6.970732791E+04 1.016316373E+02 1.185552996E+00
 -6.604853251E-01 8.308854480E-03 6.970922076E+04 1.016097973E+02 1.297800470E+00
 -6.037981014E-01 7.419970809E-03 6.971141420E+04 1.015844300E+02 1.419179075E+00
 -5.515928493E-01 6.608348065E-03 6.971395572E+04 1.015549722E+02 1.550422571E+00
 -5.035321651E-01 5.867859616E-03 6.971690018E+04 1.015207724E+02 1.692313532E+00
 -4.593032314E-01 5.192799733E-03 6.972031085E+04 1.014810775E+02 1.845685860E+00
 -4.186160663E-01 4.577854021E-03 6.972426061E+04 1.014350177E+02 2.011427682E+00
 -3.812018962E-01 4.018072708E-03 6.972883339E+04 1.013815893E+02 2.190484852E+00
 -3.468116423E-01 3.508846589E-03 6.973412566E+04 1.013196356E+02 2.383864244E+00
 -3.152145126E-01 3.045885496E-03 6.974024817E+04 1.012478225E+02 2.592639370E+00
 -2.861966931E-01 2.625199091E-03 6.974732811E+04 1.011646194E+02 2.817950763E+00
 -2.595601302E-01 2.243079754E-03 6.975551126E+04 1.010682494E+02 3.061020270E+00
 -2.351213992E-01 1.896087364E-03 6.976496427E+04 1.009566675E+02 3.323154218E+00
 -2.127106522E-01 1.581035662E-03 6.977587821E+04 1.008275566E+02 3.605742186E+00
 -1.921706400E-01 1.294979973E-03 6.978847265E+04 1.006782355E+02 3.910299658E+00
 -1.733558030E-01 1.035205948E-03 6.980299854E+04 1.005055841E+02 4.238486688E+00
 -1.561314262E-01 7.992190505E-04 6.981974181E+04 1.003060192E+02 4.592071177E+00
 -1.403728545E-01 5.847345050E-04 6.983903005E+04 1.000754115E+02 4.972975116E+00
 -1.259647628E-01 3.896674439E-04 6.986123963E+04 9.980897049E+01 5.383344139E+00
 -1.128004786E-01 2.121230195E-04 6.988680255E+04 9.950113714E+01 5.825554852E+00
 -1.007813525E-01 5.038630457E-05 6.991621537E+04 9.914543018E+01 6.302258233E+00
 -8.981617342E-02 -9.708813909E-05 6.995005162E+04 9.873426546E+01 6.816441702E+00
 -7.982062587E-02 -2.316870859E-04 6.998897474E+04 9.825868816E+01 7.371499124E+00
 -7.071678572E-02 -3.546498935E-04 7.003375843E+04 9.770813267E+01 7.971307575E+00
 -6.243265229E-02 -4.670800854E-04 7.008530333E+04 9.706982158E+01 8.620348549E+00
 -5.490171382E-02 -5.699571110E-04 7.014467937E+04 9.632865025E+01 9.323830908E+00
 -4.806254417E-02 -6.641480911E-04 7.021310095E+04 9.546551922E+01 1.008785186E+01
 -4.185842856E-02 -7.504195264E-04 7.029194894E+04 9.446109155E+01 1.092030928E+01
 -3.623983065E-02 -7.973705729E-04 7.038212387E+04 9.329410436E+01 1.184154847E+01
 -3.116644431E-02 -6.925565483E-04 7.048448667E+04 9.194021155E+01 1.288000733E+01
 -2.658157528E-02 -5.986877181E-04 7.060200239E+04 9.035626187E+01 1.404892491E+01
 -2.244423077E-02 -5.148053808E-04 7.073810391E+04 8.846661505E+01 1.536889491E+01
 -1.871661652E-02 -4.400125213E-04 7.089704523E+04 8.620859984E+01 1.687164462E+01
 -1.536389836E-02 -3.734732173E-04 7.108163682E+04 8.343780600E+01 1.861945082E+01
 -1.235398115E-02 -3.144115477E-04 7.130161435E+04 8.006796062E+01 2.066224561E+01
 -9.657303578E-03 -2.621100148E-04 7.155456621E+04 7.566682734E+01 2.316415060E+01
 -7.246647876E-03 -2.159074784E-04 7.186924567E+04 7.021387638E+01 2.622774547E+01
 -5.096963270E-03 -1.751965531E-04 7.219468788E+04 6.216392821E+01 3.036182148E+01
 -3.185202193E-03 -1.394200719E-04 7.261415655E+04 5.223793048E+01 3.551866960E+01
 -1.490168164E-03 -1.080651013E-04 7.276721792E+04 3.705968750E+01 4.612947930E+01
 7.626351982E-06 -8.064715534E-05 7.264319068E+04 2.663417152E+01 5.406084771E+01
 -4.913313371E+00 2.489252871E-01 6.969510872E+04 1.017614628E+02 1.666263072E-02
 -4.537967841E+00 2.348995494E-01 6.969508365E+04 1.017618694E+02 2.557290025E-02
 -4.190308265E+00 2.219189011E-01 6.969503679E+04 1.017627400E+02 4.612069329E-02
 -3.868346463E+00 2.099081174E-01 6.969499613E+04 1.017636064E+02 7.060470977E-02
 -3.570234237E+00 1.987973016E-01 6.969496851E+04 1.017643679E+02 9.722620089E-02
 -3.293197132E+00 1.837819724E-01 6.969497453E+04 1.017648454E+02 1.257239731E-01
 -3.036540011E+00 1.691570621E-01 6.969501282E+04 1.017649729E+02 1.561378726E-01
 -2.799024331E+00 1.556327815E-01 6.969506689E+04 1.017648846E+02 1.885438576E-01
 -2.579264640E+00 1.431292865E-01 6.969513895E+04 1.017645468E+02 2.230951777E-01
 -2.375973605E+00 1.315723950E-01 6.969523424E+04 1.017639087E+02 2.599988472E-01
 -2.187955180E+00 1.208931931E-01 6.969535530E+04 1.017629402E+02 2.994790819E-01
 -2.014098244E+00 1.110276674E-01 6.969550577E+04 1.017615981E+02 3.417782537E-01
 -1.853370665E+00 1.019163627E-01 6.969569089E+04 1.017598238E+02 3.871635532E-01
 -1.704813788E+00 9.350406184E-02 6.969591666E+04 1.017575489E+02 4.359266795E-01
 -1.567537294E+00 8.573948826E-02 6.969619010E+04 1.017546929E+02 4.883840761E-01
 -1.440714415E+00 7.857502778E-02 6.969651955E+04 1.017511593E+02 5.448787410E-01
 -1.323577480E+00 7.196646988E-02 6.969691486E+04 1.017468336E+02 6.057818301E-01
 -1.215413772E+00 6.587276646E-02 6.969738762E+04 1.017415810E+02 6.714941812E-01
 -1.115561665E+00 6.025580705E-02 6.969795142E+04 1.017352427E+02 7.424480943E-01
 -1.023407033E+00 5.508020954E-02 6.969862216E+04 1.017276322E+02 8.191092629E-01
 -9.383799082E-01 5.031312534E-02 6.969941849E+04 1.017185305E+02 9.019787858E-01
 -8.599513684E-01 4.592405805E-02 6.970036216E+04 1.017076816E+02 9.915952823E-01
 -7.876306405E-01 4.188469480E-02 6.970147855E+04 1.016947860E+02 1.088537105E+00
 -7.209624072E-01 3.816874956E-02 6.970279722E+04 1.016794945E+02 1.193424648E+00
 -6.595242994E-01 3.475181754E-02 6.970435256E+04 1.016613996E+02 1.306922736E+00
 -6.029245633E-01 3.161124006E-02 6.970618453E+04 1.016400276E+02 1.429743131E+00
 -5.507998903E-01 2.872597935E-02 6.970833946E+04 1.016148277E+02 1.562647135E+00
 -5.028133978E-01 2.607650255E-02 6.971087102E+04 1.015851606E+02 1.706448358E+00
 -4.586527507E-01 2.364467448E-02 6.971384129E+04 1.015502855E+02 1.862015709E+00
 -4.180284147E-01 2.141365858E-02 6.971732196E+04 1.015093447E+02 2.030276699E+00
 -3.806720310E-01 1.936782552E-02 6.972139571E+04 1.014613466E+02 2.212221019E+00
 -3.463349048E-01 1.749266911E-02 6.972615774E+04 1.014051460E+02 2.408905289E+00
 -3.147865999E-01 1.577472878E-02 6.973171751E+04 1.013394223E+02 2.621456509E+00
 -2.858136317E-01 1.420151849E-02 6.973820073E+04 1.012626522E+02 2.851080401E+00
 -2.592182516E-01 1.276146122E-02 6.974575173E+04 1.011730853E+02 3.099065007E+00