TITLE     = "fluent22.1.0  build-id: 10213"
VARIABLES = "X"
"Y"
"Pressure"
"X Velocity"
"Y Velocity"
DATASETAUXDATA Common.DensityVar="23"
DATASETAUXDATA Common.PressureVar="3"
DATASETAUXDATA Common.TemperatureVar="12"
DATASETAUXDATA Common.TurbulentDynamicViscosityVar="17"
DATASETAUXDATA Common.UVar="5"
DATASETAUXDATA Common.VectorVarsAreVelocity="TRUE"
DATASETAUXDATA Common.ViscosityVar="25"
DATASETAUXDATA Common.VVar="7"
ZONE T="fluid"
 STRANDID=1, SOLUTIONTIME=1.17
 Nodes=10240, Elements=10080, ZONETYPE=FEQuadrilateral
 DATAPACKING=POINT
 DT=(DOUBLE DOUBLE DOUBLE DOUBLE DOUBLE )
 -4.856290020E+00 -7.872354469E-01 6.970055984E+04 1.017400520E+02 1.385641076E-02
 -4.486981243E+00 -7.104998049E-01 6.970072330E+04 1.017374315E+02 2.281195093E-02
 -4.884823481E+00 -5.813004056E-01 6.969949253E+04 1.017441848E+02 1.499515190E-02
 -4.512994625E+00 -5.226188058E-01 6.969961633E+04 1.017421814E+02 2.399351739E-02
 -4.144912803E+00 -6.394128060E-01 6.970101204E+04 1.017323617E+02 4.353087590E-02
 -4.168592055E+00 -4.682543647E-01 6.969983598E+04 1.017383082E+02 4.477923400E-02
 -3.828128560E+00 -5.735691823E-01 6.970123607E+04 1.017275254E+02 6.827830589E-02
 -3.849646265E+00 -4.178973464E-01 6.970000562E+04 1.017346168E+02 6.957544018E-02
 -3.534810077E+00 -5.125920554E-01 6.970147782E+04 1.017226238E+02 9.514645493E-02
 -3.554326405E+00 -3.712597724E-01 6.970019091E+04 1.017308656E+02 9.651428201E-02
 -3.260750625E+00 -4.704555296E-01 6.970183583E+04 1.017170159E+02 1.237390070E-01
 -3.278706523E+00 -3.404799639E-01 6.970047833E+04 1.017264783E+02 1.252411490E-01
 -3.006602509E+00 -4.341791423E-01 6.970228970E+04 1.017106407E+02 1.540838014E-01
 -3.023163200E+00 -3.143170354E-01 6.970085116E+04 1.017213911E+02 1.557791329E-01
 -2.771408554E+00 -4.005981161E-01 6.970278959E+04 1.017038736E+02 1.863613705E-01
 -2.786678112E+00 -2.900951861E-01 6.970126374E+04 1.017159522E+02 1.882767582E-01
 -2.553796870E+00 -3.695175527E-01 6.970334421E+04 1.016966002E+02 2.207338787E-01
 -2.567871833E+00 -2.676741110E-01 6.970172359E+04 1.017100593E+02 2.228937392E-01
 -2.352492728E+00 -3.407563487E-01 6.970396559E+04 1.016886928E+02 2.573882607E-01
 -2.365462635E+00 -2.469234332E-01 6.970224210E+04 1.017035931E+02 2.598219234E-01
 -2.166311790E+00 -3.141462321E-01 6.970465822E+04 1.016800825E+02 2.965366538E-01
 -2.178259675E+00 -2.277220118E-01 6.970282314E+04 1.016964931E+02 2.992767552E-01
 -1.994153807E+00 -2.895308689E-01 6.970542976E+04 1.016706712E+02 3.384101487E-01
 -2.005156664E+00 -2.099572976E-01 6.970347343E+04 1.016886727E+02 3.414926564E-01
 -1.834996751E+00 -2.667650301E-01 6.970628996E+04 1.016603441E+02 3.832602694E-01
 -1.845125960E+00 -1.935247347E-01 6.970420197E+04 1.016800267E+02 3.867250035E-01
 -1.687891347E+00 -2.457138179E-01 6.970724890E+04 1.016489801E+02 4.313596241E-01
 -1.697213077E+00 -1.783272032E-01 6.970501814E+04 1.016704436E+02 4.352510800E-01
 -1.551955986E+00 -2.262519441E-01 6.970831781E+04 1.016364447E+02 4.830030110E-01
 -1.560531565E+00 -1.642745005E-01 6.970593233E+04 1.016597996E+02 4.873709506E-01
 -1.426371991E+00 -2.082630597E-01 6.970950940E+04 1.016225869E+02 5.385080333E-01
 -1.434258251E+00 -1.512828596E-01 6.970695647E+04 1.016479539E+02 5.434084117E-01
 -1.310379201E+00 -1.916391310E-01 6.971083797E+04 1.016072373E+02 5.982160018E-01
 -1.317628801E+00 -1.392744999E-01 6.970810408E+04 1.016347475E+02 6.037119868E-01
 -1.203271868E+00 -1.762798586E-01 6.971231965E+04 1.015902057E+02 6.624930268E-01
 -1.209933593E+00 -1.281772100E-01 6.970939045E+04 1.016200003E+02 6.686560846E-01
 -1.104394840E+00 -1.620921372E-01 6.971397270E+04 1.015712772E+02 7.317311173E-01
 -1.110513878E+00 -1.179239597E-01 6.971083302E+04 1.016035078E+02 7.386422334E-01
 -1.013139996E+00 -1.489895527E-01 6.971581778E+04 1.015502086E+02 8.063493058E-01
 -1.018758198E+00 -1.084525381E-01 6.971245162E+04 1.015850369E+02 8.141003508E-01
 -9.289429432E-01 -1.368919144E-01 6.971787839E+04 1.015267242E+02 8.867948084E-01
 -9.340990601E-01 -9.970521779E-02 6.971426889E+04 1.015643218E+02 8.954900340E-01
 -8.512799303E-01 -1.257248196E-01 6.972018119E+04 1.015005105E+02 9.735441760E-01
 -8.560098388E-01 -9.162844175E-02 6.971631067E+04 1.015410589E+02 9.833018944E-01
 -7.796649839E-01 -1.154192479E-01 6.972275654E+04 1.014712108E+02 1.067104324E+00
 -7.840018931E-01 -8.417253211E-02 6.971860648E+04 1.015149013E+02 1.078058887E+00
 -7.136472387E-01 -1.059111845E-01 6.972563901E+04 1.014384187E+02 1.168013728E+00
 -7.176218829E-01 -7.729141889E-02 6.972119005E+04 1.014854517E+02 1.180317766E+00
 -6.528084557E-01 -9.714126844E-02 6.972886799E+04 1.014016704E+02 1.276843328E+00
 -6.564492736E-01 -7.094238745E-02 6.972409996E+04 1.014522554E+02 1.290670338E+00
 -5.967607123E-01 -8.905446543E-02 6.973248840E+04 1.013604365E+02 1.394197986E+00
 -6.000940131E-01 -6.508584301E-02 6.972738035E+04 1.014147916E+02 1.409744770E+00
 -5.451442529E-01 -8.159976309E-02 6.973655148E+04 1.013141116E+02 1.520717276E+00
 -5.481943710E-01 -5.968509124E-02 6.973108170E+04 1.013724629E+02 1.538206564E+00
 -4.976254900E-01 -7.472988671E-02 6.974111582E+04 1.012620036E+02 1.657076029E+00
 -5.004149287E-01 -5.470613355E-02 6.973526183E+04 1.013245850E+02 1.676760779E+00
 -4.538951444E-01 -6.840103422E-02 6.974624825E+04 1.012033223E+02 1.803985096E+00
 -4.564447089E-01 -5.011747604E-02 6.973998687E+04 1.012703724E+02 1.826153645E+00
 -4.136665153E-01 -6.257262898E-02 6.975202513E+04 1.011371570E+02 1.962196628E+00
 -4.159954366E-01 -4.588995097E-02 6.974533257E+04 1.012089249E+02 1.987171051E+00
 -3.766738710E-01 -5.720708894E-02 6.975853385E+04 1.010624659E+02 2.132498014E+00
 -3.787999208E-01 -4.199654999E-02 6.975138577E+04 1.011392101E+02 2.160645395E+00
 -3.426709526E-01 -5.226961110E-02 6.976587396E+04 1.009780572E+02 2.315712580E+00
 -3.446105502E-01 -3.841226811E-02 6.975824548E+04 1.010600352E+02 2.347456308E+00
 -3.114295819E-01 -4.772797011E-02 6.977415980E+04 1.008825731E+02 2.512712009E+00
 -3.131978931E-01 -3.511395771E-02 6.976602488E+04 1.009700348E+02 2.548524478E+00
 -2.827383677E-01 -4.355233007E-02 6.978352286E+04 1.007744432E+02 2.724424667E+00
 -2.843493964E-01 -3.208019187E-02 6.977485456E+04 1.008676554E+02 2.764823817E+00
 -2.564015015E-01 -3.971506863E-02 6.979411270E+04 1.006518589E+02 2.951823014E+00
 -2.578681756E-01 -2.929113649E-02 6.978488399E+04 1.007511023E+02 2.997396086E+00
 -2.322376392E-01 -3.619061265E-02 6.980610000E+04 1.005127568E+02 3.195918927E+00
 -2.335718895E-01 -2.672843055E-02 6.979628347E+04 1.006183034E+02 3.247351194E+00
 -2.100788601E-01 -3.295528475E-02 6.981968087E+04 1.003547557E+02 3.457788643E+00
 -2.112916938E-01 -2.437507426E-02 6.980924788E+04 1.004668834E+02 3.515849972E+00
 -1.897697003E-01 -2.998716022E-02 6.983508031E+04 1.001751116E+02 3.738582453E+00
 -1.908712695E-01 -2.221532459E-02 6.982400062E+04 1.002941094E+02 3.804123665E+00
 -1.711662533E-01 -2.726593369E-02 6.985255601E+04 9.997066302E+01 4.039526653E+00
 -1.721659180E-01 -2.023459788E-02 6.984079799E+04 1.000968266E+02 4.113507847E+00
 -1.541353346E-01 -2.477279524E-02 6.987240338E+04 9.973776055E+01 4.361932822E+00
 -1.550417221E-01 -1.841937951E-02 6.985993382E+04 9.987139345E+01 4.445440462E+00
 -1.385537054E-01 -2.249031561E-02 6.989496166E+04 9.947218210E+01 4.707216838E+00
 -1.393747643E-01 -1.675714003E-02 6.988174509E+04 9.961360083E+01 4.801474317E+00
 -1.243073509E-01 -2.040233996E-02 6.992062070E+04 9.916903061E+01 5.076916422E+00
 -1.250504024E-01 -1.523625792E-02 6.990661877E+04 9.931856837E+01 5.183302716E+00
 -1.112908102E-01 -1.849389004E-02 6.994982942E+04 9.882261225E+01 5.472711420E+00
 -1.119625949E-01 -1.384594854E-02 6.993500028E+04 9.898062308E+01 5.592783666E+00
 -9.940655360E-02 -1.675107431E-02 6.998310590E+04 9.842627454E+01 5.896448235E+00
 -1.000132757E-01 -1.257619905E-02 6.996740336E+04 9.859313897E+01 6.031971156E+00
 -8.856440482E-02 -1.516100568E-02 7.002105059E+04 9.797221837E+01 6.350180493E+00
 -8.911177207E-02 -1.141770929E-02 7.000442265E+04 9.814835520E+01 6.503147573E+00
 -7.868100367E-02 -1.371172633E-02 7.006436095E+04 9.745121355E+01 6.836187399E+00
 -7.917426568E-02 -1.036183790E-02 7.004674764E+04 9.763710430E+01 7.008857710E+00
 -6.967930785E-02 -1.239213920E-02 7.011385299E+04 9.685235140E+01 7.356971207E+00
 -7.012329084E-02 -9.400553706E-03 7.009518463E+04 9.704854600E+01 7.551967063E+00
 -6.148813014E-02 -1.119194590E-02 7.017047650E+04 9.616248641E+01 7.915284655E+00
 -6.188726946E-02 -8.526391884E-03 7.015067596E+04 9.636956305E+01 8.135699812E+00
 -5.404170903E-02 -1.010159035E-02 7.023535954E+04 9.536607295E+01 8.514327820E+00
 -5.440007918E-02 -7.732414385E-03 7.021434115E+04 9.558463730E+01 8.763720118E+00
 -4.727930995E-02 -9.112206537E-03 7.030978808E+04 9.444342273E+01 9.157623245E+00
 -4.760065252E-02 -7.012173847E-03 7.028745299E+04 9.467416206E+01 9.440102544E+00
 -4.114485548E-02 -8.215571960E-03 7.039520926E+04 9.337511329E+01 9.851096461E+00
 -4.143260485E-02 -6.359681290E-03 7.037143471E+04 9.361890529E+01 1.017120377E+01
 -3.559479606E-02 -7.355586525E-03 7.049252424E+04 9.213908541E+01 1.061760698E+01
 -3.585075757E-02 -5.724985496E-03 7.046715062E+04 9.239705130E+01 1.098020711E+01
 -3.060851530E-02 -6.364977493E-03 7.060262442E+04 9.071174851E+01 1.148809140E+01
 -3.082943846E-02 -4.954541865E-03 7.057546703E+04 9.098517365E+01 1.189752610E+01
 -2.610238924E-02 -5.470669813E-03 7.072866069E+04 8.904723491E+01 1.247138808E+01
 -2.629164274E-02 -4.259187916E-03 7.069947837E+04 8.933817985E+01 1.293191350E+01
 -2.203612497E-02 -4.664534289E-03 7.087454385E+04 8.706808972E+01 1.357657048E+01
 -2.219679535E-02 -3.632576960E-03 7.084303539E+04 8.737854825E+01 1.409505316E+01
 -1.837257305E-02 -3.939062770E-03 7.104454286E+04 8.470481645E+01 1.483392911E+01
 -1.850748676E-02 -3.068844036E-03 7.101039537E+04 8.503813499E+01 1.541712302E+01
 -1.507749339E-02 -3.287326220E-03 7.124251542E+04 8.181863709E+01 1.628720742E+01
 -1.518923720E-02 -2.562574369E-03 7.120522532E+04 8.217576783E+01 1.694730158E+01
 -1.211933810E-02 -2.702935200E-03 7.147723441E+04 7.830581527E+01 1.799040693E+01
 -1.221027794E-02 -2.108773435E-03 7.143646454E+04 7.869194061E+01 1.873750068E+01
 -9.469049945E-03 -2.180002556E-03 7.175062910E+04 7.374351236E+01 2.005732495E+01
 -9.541348343E-03 -1.702838559E-03 7.170503745E+04 7.415946155E+01 2.092116806E+01
 -7.099875373E-03 -1.713108098E-03 7.208676674E+04 6.810125737E+01 2.257897685E+01
 -7.155507507E-03 -1.340531900E-03 7.203600774E+04 6.855599791E+01 2.359634553E+01
 -4.987191049E-03 -1.297265115E-03 7.244606274E+04 5.968557792E+01 2.601306897E+01
 -5.027959623E-03 -1.017954670E-03 7.238640967E+04 6.022318441E+01 2.723127043E+01
 -3.108342857E-03 -9.278880127E-04 7.289161172E+04 4.969254842E+01 3.044569061E+01
 -3.135891834E-03 -7.315219436E-04 7.282496580E+04 5.023392237E+01 3.186386919E+01
 -1.442496388E-03 -6.007600050E-04 7.310571647E+04 3.387214053E+01 4.020484329E+01
 -1.458323676E-03 -4.779369336E-04 7.302139007E+04 3.457196871E+01 4.186035661E+01
 2.950318352E-05 -3.119902977E-04 7.304236586E+04 2.262043492E+01 4.758963327E+01
 2.403397564E-05 -2.541545121E-04 7.294053899E+04 2.353086507E+01 4.940292908E+01
 -4.904860300E+00 -3.743658139E-01 6.969841073E+04 1.017484147E+02 1.594883656E-02
 -4.531162762E+00 -3.338152588E-01 6.969849759E+04 1.017470110E+02 2.498128028E-02
 -4.185029403E+00 -2.962446509E-01 6.969865215E+04 1.017443163E+02 4.581543906E-02
 -3.864480806E+00 -2.614402294E-01 6.969877077E+04 1.017417654E+02 7.063647827E-02
 -3.567676914E+00 -2.292032729E-01 6.969890324E+04 1.017391544E+02 9.760905574E-02
 -3.290975320E+00 -2.098373730E-01 6.969912118E+04 1.017359869E+02 1.264288513E-01
 -3.034480075E+00 -1.938401230E-01 6.969941211E+04 1.017321956E+02 1.571245610E-01
 -2.797114076E+00 -1.790257706E-01 6.969973681E+04 1.017280841E+02 1.898080068E-01
 -2.577492757E+00 -1.653088865E-01 6.970010146E+04 1.017235664E+02 2.246338226E-01
 -2.374329610E+00 -1.526100835E-01 6.970051633E+04 1.017185372E+02 2.617993590E-01
 -2.186429358E+00 -1.408555953E-01 6.970098490E+04 1.017129446E+02 3.015223536E-01
 -2.012681586E+00 -1.299768842E-01 6.970151305E+04 1.017067136E+02 3.440392128E-01
 -1.852054825E+00 -1.199102773E-01 6.970210893E+04 1.016997503E+02 3.896092032E-01
 -1.703591030E+00 -1.105966277E-01 6.970278113E+04 1.016919536E+02 4.385144768E-01
 -1.566400451E+00 -1.019809995E-01 6.970353923E+04 1.016832104E+02 4.910605748E-01
 -1.439656846E+00 -9.401237538E-02 6.970439433E+04 1.016733903E+02 5.475776649E-01
 -1.322593035E+00 -8.664338391E-02 6.970535910E+04 1.016623447E+02 6.084216662E-01
 -1.214496752E+00 -7.983004651E-02 6.970644796E+04 1.016499042E+02 6.739754701E-01
 -1.114706793E+00 -7.353154194E-02 6.970767747E+04 1.016358746E+02 7.446503176E-01
 -1.022609423E+00 -6.770998715E-02 6.970906658E+04 1.016200334E+02 8.208872396E-01
 -9.376350350E-01 -6.233023347E-02 6.971063702E+04 1.016021254E+02 9.031585460E-01
 -8.592550431E-01 -5.735967682E-02 6.971241369E+04 1.015818575E+02 9.919693735E-01
 -7.869789857E-01 -5.276808110E-02 6.971442520E+04 1.015588930E+02 1.087859246E+00
 -7.203518345E-01 -4.852741361E-02 6.971670436E+04 1.015328451E+02 1.191403684E+00
 -6.589514886E-01 -4.461169165E-02 6.971928883E+04 1.015032693E+02 1.303215770E+00
 -6.023864432E-01 -4.099683948E-02 6.972222181E+04 1.014696544E+02 1.423947849E+00
 -5.502936206E-01 -3.766055473E-02 6.972555292E+04 1.014314129E+02 1.554293235E+00
 -5.023363529E-01 -3.458218360E-02 6.972933905E+04 1.013878694E+02 1.694988046E+00
 -4.582025045E-01 -3.174260416E-02 6.973364549E+04 1.013382475E+02 1.846812505E+00
 -4.176027262E-01 -2.912411697E-02 6.973854711E+04 1.012816546E+02 2.010593870E+00
 -3.802688315E-01 -2.671034263E-02 6.974412981E+04 1.012170647E+02 2.187209056E+00
 -3.459522861E-01 -2.448612561E-02 6.975049196E+04 1.011433022E+02 2.377585796E+00
 -3.144228029E-01 -2.243744389E-02 6.975774609E+04 1.010590041E+02 2.582708365E+00
 -2.854670364E-01 -2.055132417E-02 6.976602130E+04 1.009626103E+02 2.803614852E+00
 -2.588873673E-01 -1.881576208E-02 6.977546558E+04 1.008523396E+02 3.041405992E+00
 -2.345007739E-01 -1.721964740E-02 6.978624849E+04 1.007261412E+02 3.297262158E+00
 -2.121377817E-01 -1.575269383E-02 6.979856430E+04 1.005816434E+02 3.572460466E+00
 -1.916414876E-01 -1.440537335E-02 6.981263471E+04 1.004161158E+02 3.868346426E+00
 -1.728666525E-01 -1.316885500E-02 6.982871340E+04 1.002264242E+02 4.186349655E+00
 -1.556788587E-01 -1.203494800E-02 6.984709177E+04 1.000089420E+02 4.528041902E+00
 -1.399537255E-01 -1.099604915E-02 6.986810411E+04 9.975947659E+01 4.895134427E+00
 -1.255761819E-01 -1.004509454E-02 6.989213374E+04 9.947317151E+01 5.289495228E+00
 -1.124397903E-01 -9.175515410E-03 6.991962144E+04 9.914438334E+01 5.713185206E+00
 -1.004461178E-01 -8.381198090E-03 6.995107539E+04 9.876652265E+01 6.168496701E+00
 -8.950415309E-02 -7.656447969E-03 6.998708305E+04 9.833187578E+01 6.657994889E+00
 -7.952976485E-02 -6.995957194E-03 7.002832501E+04 9.783133037E+01 7.184565205E+00
 -7.044519837E-02 -6.394775935E-03 7.007559703E+04 9.725411483E+01 7.751473347E+00
 -6.217860874E-02 -5.848286993E-03 7.012982831E+04 9.658719533E+01 8.362453272E+00
 -5.466362737E-02 -5.352183276E-03 7.019212260E+04 9.581515273E+01 9.021808447E+00
 -4.783895964E-02 -4.902447700E-03 7.026373356E+04 9.491852260E+01 9.734490051E+00
 -4.164801145E-02 -4.495335500E-03 7.034606975E+04 9.387802303E+01 1.050750077E+01
 -3.604406206E-02 -4.087062748E-03 7.044000300E+04 9.267195394E+01 1.136198265E+01
 -3.099647228E-02 -3.537799903E-03 7.054637081E+04 9.127690210E+01 1.232798858E+01
 -2.643493093E-02 -3.042320409E-03 7.066818830E+04 8.964859798E+01 1.341740027E+01
 -2.231865148E-02 -2.596067338E-03 7.080918386E+04 8.770994841E+01 1.464499383E+01
 -1.861002949E-02 -2.194825749E-03 7.097359064E+04 8.539459317E+01 1.604117956E+01
 -1.527440563E-02 -1.834701468E-03 7.116480596E+04 8.255957296E+01 1.765998176E+01
 -1.227984571E-02 -1.512100797E-03 7.139199300E+04 7.910956615E+01 1.955097755E+01
 -9.596936667E-03 -1.223711063E-03 7.165493461E+04 7.461358510E+01 2.185925790E+01
 -7.198597256E-03 -9.664819200E-04 7.197988845E+04 6.905412472E+01 2.468616661E+01
 -5.059902436E-03 -7.376073124E-04 7.232062211E+04 6.081607206E+01 2.851875929E+01
 -3.157920405E-03 -5.345074632E-04 7.275108133E+04 5.083642197E+01 3.335965791E+01
 -1.471561253E-03 -3.548097518E-04 7.292840632E+04 3.533522569E+01 4.360942233E+01
 1.856476775E-05 -1.963187265E-04 7.282926704E+04 2.451189730E+01 5.131625601E+01
 -4.916318661E+00 -1.667794339E-01 6.969732748E+04 1.017526954E+02 1.656528789E-02
 -4.541410107E+00 -1.444102786E-01 6.969737734E+04 1.017518955E+02 2.562170948E-02
 -4.194155109E+00 -1.236800981E-01 6.969746562E+04 1.017503893E+02 4.650617756E-02
 -3.872567822E+00 -1.044713907E-01 6.969753174E+04 1.017489790E+02 7.138738234E-02
 -3.574802220E+00 -8.667493942E-02 6.969761104E+04 1.017474929E+02 9.843772266E-02
 -3.297502287E+00 -7.876054577E-02 6.969775923E+04 1.017455321E+02 1.273738188E-01
 -3.040502672E+00 -7.296304853E-02 6.969796763E+04 1.017430306E+02 1.582252865E-01
 -2.802669933E+00 -6.758772084E-02 6.969820393E+04 1.017402419E+02 1.910821903E-01
 -2.582616779E+00 -6.260419400E-02 6.969847290E+04 1.017370981E+02 2.260980573E-01
 -2.379054172E+00 -5.798424223E-02 6.969878339E+04 1.017335100E+02 2.634758529E-01
 -2.190784480E+00 -5.370163289E-02 6.969913858E+04 1.017294331E+02 3.034372417E-01
 -2.016695105E+00 -4.973198759E-02 6.969954358E+04 1.017248029E+02 3.462221389E-01
 -1.855752548E+00 -4.605265354E-02 6.970000562E+04 1.017195367E+02 3.920942454E-01
 -1.706996879E+00 -4.264258418E-02 6.970053248E+04 1.017135438E+02 4.413407922E-01
 -1.569536598E+00 -3.948222850E-02 6.970113294E+04 1.017067212E+02 4.942728679E-01
 -1.442543838E+00 -3.655342832E-02 6.970181722E+04 1.016989492E+02 5.512269710E-01
 -1.325249910E+00 -3.383932297E-02 6.970259710E+04 1.016900898E+02 6.125663333E-01
 -1.216941147E+00 -3.132426086E-02 6.970348612E+04 1.016799843E+02 6.786822307E-01
 -1.116955046E+00 -2.899371727E-02 6.970449991E+04 1.016684496E+02 7.499955047E-01
 -1.024676664E+00 -2.683421799E-02 6.970565647E+04 1.016552740E+02 8.269581771E-01
 -9.395352746E-01 -2.483326831E-02 6.970697658E+04 1.016402134E+02 9.100551125E-01
 -8.610012527E-01 -2.297928691E-02 6.970848416E+04 1.016229861E+02 9.998057538E-01
 -7.885831727E-01 -2.126154422E-02 6.971020684E+04 1.016032665E+02 1.096765910E+00
 -7.218251119E-01 -1.967010489E-02 6.971217641E+04 1.015806790E+02 1.201529613E+00
 -6.603041397E-01 -1.819577403E-02 6.971442954E+04 1.015547902E+02 1.314731006E+00
 -6.036279817E-01 -1.683004679E-02 6.971700844E+04 1.015251001E+02 1.437046281E+00
 -5.514328467E-01 -1.556506096E-02 6.971996171E+04 1.014910317E+02 1.569195636E+00
 -5.033814049E-01 -1.439355243E-02 6.972334526E+04 1.014519202E+02 1.711945401E+00
 -4.591609069E-01 -1.330881300E-02 6.972722340E+04 1.014069996E+02 1.866110533E+00
 -4.184814346E-01 -1.230465044E-02 6.973167000E+04 1.013553870E+02 2.032556652E+00
 -3.810742740E-01 -1.137535060E-02 6.973676995E+04 1.012960667E+02 2.212203262E+00
 -3.466904016E-01 -1.051564123E-02 6.974262057E+04 1.012278690E+02 2.406028120E+00
 -3.150990772E-01 -9.720657532E-03 6.974933354E+04 1.011494525E+02 2.615066090E+00
 -2.860865346E-01 -8.985909285E-03 6.975703697E+04 1.010592633E+02 2.840422515E+00
 -2.594547655E-01 -8.307249416E-03 6.976587738E+04 1.009555111E+02 3.083273917E+00
 -2.350203870E-01 -7.680844118E-03 6.977602233E+04 1.008361599E+02 3.344860713E+00
 -2.126135902E-01 -7.103144495E-03 6.978766455E+04 1.006988718E+02 3.626522869E+00
 -1.920771621E-01 -6.570859788E-03 6.980102493E+04 1.005409263E+02 3.929733843E+00
 -1.732655767E-01 -6.080932303E-03 6.981635499E+04 1.003591922E+02 4.256048669E+00
 -1.560441504E-01 -5.630514164E-03 6.983394248E+04 1.001500735E+02 4.607129356E+00
 -1.402882565E-01 -5.216945987E-03 6.985411822E+04 9.990940259E+01 4.984824100E+00
 -1.258825964E-01 -4.837737596E-03 6.987726167E+04 9.963235236E+01 5.391162654E+00
 -1.127205217E-01 -4.490550864E-03 6.990380845E+04 9.931331923E+01 5.828381175E+00
 -1.007034050E-01 -4.173184722E-03 6.993426028E+04 9.894576220E+01 6.298971826E+00
 -8.974005512E-02 -3.883562343E-03 6.996919720E+04 9.852202171E+01 6.805741828E+00
 -7.974617440E-02 -3.619720423E-03 7.000929065E+04 9.803305034E+01 7.351872598E+00
 -7.064385479E-02 -3.379800464E-03 7.005532460E+04 9.746816452E+01 7.940982203E+00
 -6.236110986E-02 -3.162041905E-03 7.010821333E+04 9.681443528E+01 8.577233602E+00
 -5.483144050E-02 -2.964776787E-03 7.016904335E+04 9.605657897E+01 9.265435274E+00
 -4.799343174E-02 -2.786425667E-03 7.023904772E+04 9.517525111E+01 1.001117791E+01
 -4.179037860E-02 -2.625494677E-03 7.031961836E+04 9.415122236E+01 1.082193712E+01
 -3.617410672E-02 -2.444382079E-03 7.041161217E+04 9.296321838E+01 1.171855096E+01
 -3.110909838E-02 -2.116956780E-03 7.051585567E+04 9.158742761E+01 1.273073750E+01
 -2.653181169E-02 -1.821948253E-03 7.063534742E+04 8.997995862E+01 1.387134373E+01
 -2.240132004E-02 -1.556593790E-03 7.077366601E+04 8.806423539E+01 1.515849539E+01
 -1.867988994E-02 -1.318332619E-03 7.093502282E+04 8.577587982E+01 1.662390107E+01
 -1.533274313E-02 -1.104795067E-03 7.112248283E+04 8.297090961E+01 1.832667961E+01
 -1.232783588E-02 -9.137919089E-04 7.134543765E+04 7.955860059E+01 2.031739524E+01
 -9.635654233E-03 -7.433039061E-04 7.160240462E+04 7.510598851E+01 2.275244864E+01
 -7.229024014E-03 -5.914714455E-04 7.192078484E+04 6.959563463E+01 2.573597640E+01
 -5.082934620E-03 -4.565842345E-04 7.225144677E+04 6.145556019E+01 2.976889421E+01
 -3.174375487E-03 -3.370705067E-04 7.267318912E+04 5.149383794E+01 3.482274041E+01
 -1.482184215E-03 -2.314844527E-04 7.283036501E+04 3.616435665E+01 4.534000929E+01
 1.309555987E-05 -1.384829409E-04 7.271238776E+04 2.556422707E+01 5.321939902E+01
 -4.919121367E+00 4.110405248E-02 6.969624096E+04 1.017570067E+02 1.694840416E-02
 -4.543665382E+00 4.526861605E-02 6.969625381E+04 1.017568075E+02 2.603562866E-02
 -4.195903370E+00 4.913696191E-02 6.969627543E+04 1.017564862E+02 4.698401748E-02
 -3.873846583E+00 5.273016073E-02 6.969628888E+04 1.017562138E+02 7.192991356E-02
 -3.575646292E+00 5.606781771E-02 6.969631538E+04 1.017558515E+02 9.904338036E-02
 -3.298235794E+00 5.251309449E-02 6.969639361E+04 1.017551053E+02 1.280608568E-01
 -3.041183384E+00 4.809527111E-02 6.969651858E+04 1.017539084E+02 1.590234499E-01
 -2.803301801E+00 4.401717234E-02 6.969666559E+04 1.017524575E+02 1.920118155E-01
 -2.583203465E+00 4.025402146E-02 6.969683812E+04 1.017507012E+02 2.271786855E-01
 -2.379599071E+00 3.678280414E-02 6.969704334E+04 1.017485688E+02 2.647304708E-01
 -2.191290740E+00 3.358214616E-02 6.969728411E+04 1.017460229E+02 3.048915852E-01
 -2.017165646E+00 3.063219899E-02 6.969756483E+04 1.017430092E+02 3.479046231E-01
 -1.856190073E+00 2.791453253E-02 6.969789176E+04 1.017394568E+02 3.940370305E-01
 -1.707403897E+00 2.541203485E-02 6.969827186E+04 1.017352854E+02 4.435807633E-01
 -1.569915432E+00 2.310881833E-02 6.969871303E+04 1.017304029E+02 4.968523963E-01
 -1.442896641E+00 2.099013197E-02 6.969922461E+04 1.017247005E+02 5.541948097E-01
 -1.325578677E+00 1.904227944E-02 6.969981745E+04 1.017180513E+02 6.159786480E-01
 -1.217247726E+00 1.725254252E-02 6.970050417E+04 1.017103079E+02 6.826037184E-01
 -1.117241149E+00 1.560910967E-02 6.970129942E+04 1.017012985E+02 7.545006453E-01
 -1.024943877E+00 1.410100945E-02 6.970222022E+04 1.016908230E+02 8.321326586E-01
 -9.397850673E-01 1.271804847E-02 6.970328632E+04 1.016786491E+02 9.159974467E-01
 -8.612349854E-01 1.145075367E-02 6.970452062E+04 1.016645068E+02 1.006629103E+00
 -7.888021053E-01 1.029031869E-02 6.970594967E+04 1.016480826E+02 1.104600149E+00
 -7.220304111E-01 9.228554227E-03 6.970760421E+04 1.016290128E+02 1.210523636E+00
 -6.604968857E-01 8.257841978E-03 6.970951982E+04 1.016068759E+02 1.325055299E+00
 -6.038091746E-01 7.371092287E-03 6.971173762E+04 1.015811837E+02 1.448895798E+00
 -5.516034120E-01 6.561705126E-03 6.971430512E+04 1.015513711E+02 1.582793078E+00
 -5.035421992E-01 5.823534369E-03 6.971727713E+04 1.015167848E+02 1.727544878E+00
 -4.593127228E-01 5.150855223E-03 6.972071685E+04 1.014766700E+02 1.884001345E+00
 -4.186250052E-01 4.538334640E-03 6.972469704E+04 1.014301553E+02 2.053067929E+00
 -3.812102772E-01 3.981004613E-03 6.972930144E+04 1.013762356E+02 2.235709235E+00
 -3.468194639E-01 3.474238169E-03 6.973462625E+04 1.013137532E+02 2.432951669E+00
 -3.152217772E-01 3.013727911E-03 6.974078191E+04 1.012413730E+02 2.645889296E+00
 -2.862034069E-01 2.595466901E-03 6.974789525E+04 1.011575606E+02 2.875687166E+00
 -2.595663029E-01 2.215731684E-03 6.975611162E+04 1.010605452E+02 3.123590583E+00
 -2.351270440E-01 1.871067197E-03 6.976559696E+04 1.009482789E+02 3.390936139E+00
 -2.127157855E-01 1.558273290E-03 6.977654116E+04 1.008184327E+02 3.679138788E+00
 -1.921752808E-01 1.274392604E-03 6.978916290E+04 1.006683367E+02 3.989734614E+00
 -1.733599730E-01 1.016699462E-03 6.980371253E+04 1.004948747E+02 4.324430922E+00
 -1.561351494E-01 7.826895011E-04 6.982047468E+04 1.002944574E+02 4.685037993E+00
 -1.403761564E-01 5.700697419E-04 6.983977523E+04 1.000629574E+02 5.073510244E+00
 -1.259676706E-01 3.767488259E-04 6.986198878E+04 9.979558372E+01 5.492042079E+00
 -1.128030204E-01 2.008271882E-04 6.988754540E+04 9.948677546E+01 5.943064396E+00
 -1.007835570E-01 4.058697749E-05 6.991693943E+04 9.913004877E+01 6.429287077E+00
 -8.981806951E-02 -1.055183979E-04 6.995074180E+04 9.871781577E+01 6.953766990E+00
 -7.982224232E-02 -2.388751605E-04 6.998961291E+04 9.824111558E+01 7.519978979E+00
 -7.071815076E-02 -3.607205168E-04 7.003432295E+04 9.768937416E+01 8.131895041E+00
 -6.243379328E-02 -4.721543848E-04 7.008576840E+04 9.704979782E+01 8.794109673E+00
 -5.490265697E-02 -5.741513268E-04 7.014501442E+04 9.630726741E+01 9.511967934E+00
 -4.806331433E-02 -6.675724892E-04 7.021326854E+04 9.544264725E+01 1.029172962E+01
 -4.185904899E-02 -7.531775217E-04 7.029190258E+04 9.443662890E+01 1.114149429E+01
 -3.624032284E-02 -7.995580611E-04 7.038179114E+04 9.326803291E+01 1.208185799E+01
 -3.116682769E-02 -6.942613120E-04 7.048375580E+04 9.191268238E+01 1.314162660E+01
 -2.658186792E-02 -5.999896625E-04 7.060075030E+04 9.032740657E+01 1.433445577E+01
 -2.244444887E-02 -5.157761512E-04 7.073618377E+04 8.843623414E+01 1.568151802E+01
 -1.871677441E-02 -4.407156251E-04 7.089427267E+04 8.617664696E+01 1.721529863E+01
 -1.536400859E-02 -3.739642954E-04 7.107772236E+04 8.340386110E+01 1.899939102E+01
 -1.235405457E-02 -3.147387637E-04 7.129619332E+04 8.003197709E+01 2.108545907E+01
 -9.657349447E-03 -2.623145296E-04 7.154689888E+04 7.562878548E+01 2.364070934E+01
 -7.246673997E-03 -2.160239826E-04 7.185832811E+04 7.017493239E+01 2.677322510E+01
 -5.096976106E-03 -1.752538238E-04 7.217870635E+04 6.213816016E+01 3.099818684E+01
 -3.185206997E-03 -1.394415092E-04 7.259119879E+04 5.220543849E+01 3.626383821E+01
 -1.490169069E-03 -1.080691389E-04 7.272742310E+04 3.705989689E+01 4.706199137E+01
 7.626351982E-06 -8.064715534E-05 7.259031370E+04 2.668659096E+01 5.512363176E+01
 -4.913313371E+00 2.489252871E-01 6.969515163E+04 1.017613331E+02 1.702780608E-02
 -4.537970083E+00 2.348896675E-01 6.969512717E+04 1.017617393E+02 2.613096448E-02
 -4.190312491E+00 2.219002723E-01 6.969508141E+04 1.017626129E+02 4.712400080E-02
 -3.868352436E+00 2.098817884E-01 6.969504158E+04 1.017634857E+02 7.213975952E-02
 -3.570241736E+00 1.987642381E-01 6.969501499E+04 1.017642517E+02 9.934080547E-02
 -3.293205963E+00 1.837430343E-01 6.969502288E+04 1.017647263E+02 1.284596626E-01
 -3.036549987E+00 1.691130667E-01 6.969506377E+04 1.017648430E+02 1.595362363E-01
 -2.799035282E+00 1.555844861E-01 6.969512077E+04 1.017647392E+02 1.926473942E-01
 -2.579276406E+00 1.430773867E-01 6.969519615E+04 1.017643801E+02 2.279489208E-01
 -2.375986041E+00 1.315175292E-01 6.969529525E+04 1.017637144E+02 2.656514970E-01
 -2.187968154E+00 1.208359469E-01 6.969542061E+04 1.017627114E+02 3.059833694E-01
 -2.014111632E+00 1.109685778E-01 6.969557592E+04 1.017613274E+02 3.491913156E-01
 -1.853384356E+00 1.018559216E-01 6.969576645E+04 1.017595032E+02 3.955474354E-01
 -1.704827680E+00 9.344271975E-02 6.969599828E+04 1.017571698E+02 4.453488237E-01
 -1.567551293E+00 8.567765705E-02 6.969627844E+04 1.017542457E+02 4.989178010E-01
 -1.440728435E+00 7.851308384E-02 6.969661533E+04 1.017506337E+02 5.566037553E-01
 -1.323591443E+00 7.190475660E-02 6.969701887E+04 1.017462183E+02 6.187847702E-01
 -1.215427607E+00 6.581159647E-02 6.969750069E+04 1.017408637E+02 6.858691742E-01
 -1.115575308E+00 6.019546429E-02 6.969807443E+04 1.017344099E+02 7.582973509E-01
 -1.023420425E+00 5.502095101E-02 6.969875607E+04 1.017266692E+02 8.365437035E-01
 -9.383929977E-01 5.025518261E-02 6.969956429E+04 1.017174214E+02 9.211187006E-01
 -8.599641080E-01 4.586763863E-02 6.970052090E+04 1.017064091E+02 1.012571029E+00
 -7.876429886E-01 4.182998325E-02 6.970165132E+04 1.016933313E+02 1.111489843E+00
 -7.209743271E-01 3.811590844E-02 6.970298516E+04 1.016778372E+02 1.218507114E+00
 -6.595357594E-01 3.470098820E-02 6.970455682E+04 1.016595179E+02 1.334300066E+00
 -6.029355365E-01 3.156254330E-02 6.970640626E+04 1.016378981E+02 1.459593717E+00
 -5.508103542E-01 2.867951598E-02 6.970857979E+04 1.016124254E+02 1.595163547E+00
 -5.028233345E-01 2.603235390E-02 6.971113102E+04 1.015824590E+02 1.741838311E+00
 -4.586621467E-01 2.360290280E-02 6.971412193E+04 1.015472566E+02 1.900503109E+00
 -4.180372607E-01 2.137430748E-02 6.971762407E+04 1.015059591E+02 2.072102768E+00
 -3.806803218E-01 1.933092040E-02 6.972171990E+04 1.014575737E+02 2.257645488E+00
 -3.463426393E-01 1.745821763E-02 6.972650435E+04 1.014009544E+02 2.458207395E+00
 -3.147937810E-01 1.574272142E-02 6.973208653E+04 1.013347795E+02 2.674936644E+00
 -2.858202659E-01 1.417192919E-02 6.973859174E+04 1.012575247E+02 2.909061181E+00
 -2.592243490E-01 1.273424815E-02 6.974616373E+04 1.011674383E+02 3.161895331E+00