TITLE     = "fluent22.1.0  build-id: 10213"
VARIABLES = "X"
"Y"
"Pressure"
"X Velocity"
"Y Velocity"
DATASETAUXDATA Common.DensityVar="23"
DATASETAUXDATA Common.PressureVar="3"
DATASETAUXDATA Common.TemperatureVar="12"
DATASETAUXDATA Common.TurbulentDynamicViscosityVar="17"
DATASETAUXDATA Common.UVar="5"
DATASETAUXDATA Common.VectorVarsAreVelocity="TRUE"
DATASETAUXDATA Common.ViscosityVar="25"
DATASETAUXDATA Common.VVar="7"
ZONE T="fluid"
 STRANDID=1, SOLUTIONTIME=1.1975
 Nodes=10240, Elements=10080, ZONETYPE=FEQuadrilateral
 DATAPACKING=POINT
 DT=(DOUBLE DOUBLE DOUBLE DOUBLE DOUBLE )
 -4.856290020E+00 -7.872354469E-01 6.970067614E+04 1.017396252E+02 1.402437111E-02
 -4.486983145E+00 -7.105077753E-01 6.970084233E+04 1.017369623E+02 2.310039690E-02
 -4.884823481E+00 -5.813004056E-01 6.969959491E+04 1.017438122E+02 1.518350560E-02
 -4.512996505E+00 -5.226267067E-01 6.969972110E+04 1.017417739E+02 2.430317169E-02
 -4.144916384E+00 -6.394278125E-01 6.970113589E+04 1.017318110E+02 4.409938441E-02
 -4.168595596E+00 -4.682692457E-01 6.969994497E+04 1.017378340E+02 4.537024874E-02
 -3.828133613E+00 -5.735903692E-01 6.970136368E+04 1.017268974E+02 6.918388015E-02
 -3.849651263E+00 -4.179183617E-01 6.970011793E+04 1.017340798E+02 7.050447965E-02
 -3.534816415E+00 -5.126186354E-01 6.970160954E+04 1.017219162E+02 9.641973356E-02
 -3.554332676E+00 -3.712861443E-01 6.970030682E+04 1.017302639E+02 9.781231888E-02
 -3.260758084E+00 -4.704868111E-01 6.970197337E+04 1.017162173E+02 1.254038010E-01
 -3.278713905E+00 -3.405110106E-01 6.970059937E+04 1.017258014E+02 1.269329205E-01
 -3.006610935E+00 -4.342144747E-01 6.970243440E+04 1.017097401E+02 1.561633484E-01
 -3.023171541E+00 -3.143521100E-01 6.970097855E+04 1.017206286E+02 1.578886895E-01
 -2.771417803E+00 -4.006368969E-01 6.970294218E+04 1.017028647E+02 1.888806307E-01
 -2.786687268E+00 -2.901336885E-01 6.970139810E+04 1.017150983E+02 1.908294372E-01
 -2.553806811E+00 -3.695592288E-01 6.970350553E+04 1.016954750E+02 2.237192427E-01
 -2.567881674E+00 -2.677154902E-01 6.970186567E+04 1.017091067E+02 2.259162637E-01
 -2.352503239E+00 -3.408004125E-01 6.970413665E+04 1.016874420E+02 2.608679476E-01
 -2.365473040E+00 -2.469671836E-01 6.970239279E+04 1.017025330E+02 2.633428886E-01
 -2.166322761E+00 -3.141922183E-01 6.970484007E+04 1.016786958E+02 3.005411377E-01
 -2.178270535E+00 -2.277676697E-01 6.970298336E+04 1.016953160E+02 3.033270345E-01
 -1.994165136E+00 -2.895783507E-01 6.970562353E+04 1.016691371E+02 3.429724741E-01
 -2.005167877E+00 -2.100044379E-01 6.970364418E+04 1.016873682E+02 3.461057136E-01
 -1.835008346E+00 -2.668136166E-01 6.970649689E+04 1.016586499E+02 3.884163704E-01
 -1.845137434E+00 -1.935729679E-01 6.970438435E+04 1.016785829E+02 3.919372108E-01
 -1.687903122E+00 -2.457631508E-01 6.970747034E+04 1.016471118E+02 4.371486441E-01
 -1.697224727E+00 -1.783761725E-01 6.970521333E+04 1.016688478E+02 4.411020410E-01
 -1.551967864E+00 -2.263016956E-01 6.970855521E+04 1.016343868E+02 4.894676309E-01
 -1.560543314E+00 -1.643238795E-01 6.970614163E+04 1.016580376E+02 4.939038283E-01
 -1.426383900E+00 -2.083129299E-01 6.970976432E+04 1.016203225E+02 5.456948051E-01
 -1.434270028E+00 -1.513323498E-01 6.970718127E+04 1.016460102E+02 5.506702642E-01
 -1.310391075E+00 -1.916888461E-01 6.971111210E+04 1.016047478E+02 6.061756959E-01
 -1.317640541E+00 -1.393238286E-01 6.970834588E+04 1.016326051E+02 6.117541165E-01
 -1.203283649E+00 -1.763291687E-01 6.971261480E+04 1.015874709E+02 6.712809993E-01
 -1.209945238E+00 -1.282261288E-01 6.970965086E+04 1.016176409E+02 6.775344053E-01
 -1.104406472E+00 -1.621408148E-01 6.971429079E+04 1.015682753E+02 7.414076994E-01
 -1.110525373E+00 -1.179722426E-01 6.971111374E+04 1.016009112E+02 7.484176579E-01
 -1.013151432E+00 -1.490373915E-01 6.971616087E+04 1.015469158E+02 8.169802166E-01
 -1.018769494E+00 -1.084999800E-01 6.971275451E+04 1.015821815E+02 8.248391999E-01
 -9.289541368E-01 -1.369387277E-01 6.971824865E+04 1.015231148E+02 8.984515947E-01
 -9.341101137E-01 -9.975163359E-02 6.971459589E+04 1.015611841E+02 9.072644701E-01
 -8.512908421E-01 -1.257704394E-01 6.972058093E+04 1.014965570E+02 9.863046723E-01
 -8.560206104E-01 -9.167366502E-02 6.971666386E+04 1.015376138E+02 9.961903809E-01
 -7.796755778E-01 -1.154635243E-01 6.972318818E+04 1.014668837E+02 1.081053143E+00
 -7.840123471E-01 -8.421641431E-02 6.971898801E+04 1.015111216E+02 1.092146675E+00
 -7.136574829E-01 -1.059539844E-01 6.972610509E+04 1.014336862E+02 1.183242780E+00
 -7.176319881E-01 -7.733382864E-02 6.972160220E+04 1.014813085E+02 1.195697409E+00
 -6.528183222E-01 -9.718247537E-02 6.972937115E+04 1.013964989E+02 1.293452412E+00
 -6.564590026E-01 -7.098320989E-02 6.972454510E+04 1.014477178E+02 1.307442251E+00
 -5.967701769E-01 -8.909397893E-02 6.973303137E+04 1.013547902E+02 1.412295336E+00
 -6.001033421E-01 -6.512497932E-02 6.972786091E+04 1.014098267E+02 1.428017809E+00
 -5.451532950E-01 -8.163749832E-02 6.973713707E+04 1.013079527E+02 1.540420230E+00
 -5.482032801E-01 -5.972245824E-02 6.973160019E+04 1.013670361E+02 1.558098661E+00
 -4.976340927E-01 -7.476577417E-02 6.974174687E+04 1.012552922E+02 1.678511788E+00
 -5.004234016E-01 -5.474166338E-02 6.973582078E+04 1.013186598E+02 1.698399591E+00
 -4.539032944E-01 -6.843501947E-02 6.974692764E+04 1.011960165E+02 1.827291260E+00
 -4.564527328E-01 -5.015111583E-02 6.974058882E+04 1.012639105E+02 1.849677163E+00
 -4.136742027E-01 -6.260467241E-02 6.975275574E+04 1.011292141E+02 1.987521754E+00
 -4.160030022E-01 -4.592166262E-02 6.974598004E+04 1.012018865E+02 2.012728674E+00
 -3.766810895E-01 -5.723716552E-02 6.975931849E+04 1.010538406E+02 2.160003379E+00
 -3.788070224E-01 -4.202630987E-02 6.975208121E+04 1.011315537E+02 2.188398462E+00
 -3.426776991E-01 -5.229771010E-02 6.976671528E+04 1.009687020E+02 2.345573068E+00
 -3.446171851E-01 -3.844006677E-02 6.975899118E+04 1.010517183E+02 2.377578432E+00
 -3.114358569E-01 -4.775409481E-02 6.977506038E+04 1.008724405E+02 2.545114935E+00
 -3.132040622E-01 -3.513979952E-02 6.976682306E+04 1.009610151E+02 2.581203749E+00
 -2.827441747E-01 -4.357649730E-02 6.978448504E+04 1.007634850E+02 2.759570113E+00
 -2.843551038E-01 -3.210409459E-02 6.977570717E+04 1.008578861E+02 2.800264462E+00
 -2.564068474E-01 -3.973730829E-02 6.979513844E+04 1.006400255E+02 2.989930052E+00
 -2.578734283E-01 -2.931313072E-02 6.978579250E+04 1.007405379E+02 3.035814330E+00
 -2.322425336E-01 -3.621096706E-02 6.980719099E+04 1.004999975E+02 3.237225796E+00
 -2.335766974E-01 -2.674855907E-02 6.979724909E+04 1.006069000E+02 3.288981401E+00
 -2.100833156E-01 -3.297380789E-02 6.982083834E+04 1.003410198E+02 3.502549373E+00
 -2.112960697E-01 -2.439339125E-02 6.981027147E+04 1.004545939E+02 3.560948512E+00
 -1.897737321E-01 -3.000391679E-02 6.983630489E+04 1.001603483E+02 3.787070777E+00
 -1.908752285E-01 -2.223189468E-02 6.982508235E+04 1.002808879E+02 3.852964280E+00
 -1.711698788E-01 -2.728099804E-02 6.985384769E+04 9.995482123E+01 4.092038829E+00
 -1.721694778E-01 -2.024949515E-02 6.984193729E+04 1.000826276E+02 4.166385707E+00
 -1.541385736E-01 -2.478625022E-02 6.987376143E+04 9.972078893E+01 4.418789043E+00
 -1.550449020E-01 -1.843268622E-02 6.986112938E+04 9.985617134E+01 4.502675121E+00
 -1.385565791E-01 -2.250225120E-02 6.989638448E+04 9.945402848E+01 4.768764167E+00
 -1.393775857E-01 -1.676894540E-02 6.988299472E+04 9.959730903E+01 4.863412492E+00
 -1.243098822E-01 -2.041285186E-02 6.992210574E+04 9.914964133E+01 5.143529751E+00
 -1.250528876E-01 -1.524665668E-02 6.990791929E+04 9.930115982E+01 5.250318846E+00
 -1.112930228E-01 -1.850307823E-02 6.995137295E+04 9.880193342E+01 5.544797821E+00
 -1.119647676E-01 -1.385503951E-02 6.993634722E+04 9.896205110E+01 5.665284414E+00
 -9.940847231E-02 -1.675904149E-02 6.998470285E+04 9.840425022E+01 5.974453434E+00
 -1.000151600E-01 -1.258408367E-02 6.996879081E+04 9.857335531E+01 6.110402559E+00
 -8.856605447E-02 -1.516785578E-02 7.002269469E+04 9.794878578E+01 6.434592907E+00
 -8.911339247E-02 -1.142449013E-02 7.000584331E+04 9.812730686E+01 6.587996336E+00
 -7.868240919E-02 -1.371756308E-02 7.006604455E+04 9.742630149E+01 6.927543462E+00
 -7.917564665E-02 -1.036761727E-02 7.004819275E+04 9.761473105E+01 7.100658398E+00
 -6.968049379E-02 -1.239706470E-02 7.011556675E+04 9.682587943E+01 7.455862936E+00
 -7.012445644E-02 -9.405432293E-03 7.009664353E+04 9.702477986E+01 7.651312501E+00
 -6.148912042E-02 -1.119605942E-02 7.017220920E+04 9.613435717E+01 8.022370260E+00
 -6.188824311E-02 -8.530467564E-03 7.015213581E+04 9.634432181E+01 8.243249418E+00
 -5.404252662E-02 -1.010498718E-02 7.023709797E+04 9.533617137E+01 8.630347254E+00
 -5.440088336E-02 -7.735781137E-03 7.021578684E+04 9.555782533E+01 8.880213860E+00
 -4.727997666E-02 -9.114977076E-03 7.031151599E+04 9.441159512E+01 9.283405622E+00
 -4.760130857E-02 -7.014920835E-03 7.028886589E+04 9.464564642E+01 9.566374227E+00
 -4.114539175E-02 -8.217800966E-03 7.039690568E+04 9.334122550E+01 9.987624812E+00
 -4.143313280E-02 -6.361892136E-03 7.037279175E+04 9.358857188E+01 1.030821431E+01
 -3.559522064E-02 -7.357352090E-03 7.049414906E+04 9.210307519E+01 1.076599890E+01
 -3.585117580E-02 -5.726737433E-03 7.046840939E+04 9.236486378E+01 1.112908575E+01
 -3.060884488E-02 -6.366350068E-03 7.060411038E+04 9.067370445E+01 1.164967025E+01
 -3.082976346E-02 -4.955904953E-03 7.057655745E+04 9.095123644E+01 1.205963513E+01
 -2.610263989E-02 -5.471715402E-03 7.072993732E+04 8.900718629E+01 1.264780688E+01
 -2.629189018E-02 -4.260227140E-03 7.070032825E+04 8.930254084E+01 1.310884473E+01
 -2.203631105E-02 -4.665311869E-03 7.087553439E+04 8.702574533E+01 1.376980912E+01
 -2.219697926E-02 -3.633350461E-03 7.084356497E+04 8.734094001E+01 1.428873094E+01
 -1.837270720E-02 -3.939624423E-03 7.104514894E+04 8.466004715E+01 1.504635893E+01
 -1.850761950E-02 -3.069403226E-03 7.101050214E+04 8.499845223E+01 1.562985577E+01
 -1.507758664E-02 -3.287717399E-03 7.124257884E+04 8.177090260E+01 1.652198340E+01
 -1.518932958E-02 -2.562964176E-03 7.120474405E+04 8.213341531E+01 1.718231648E+01
 -1.211939992E-02 -2.703195082E-03 7.147657317E+04 7.825536544E+01 1.825131016E+01
 -1.221033927E-02 -2.109032640E-03 7.143520602E+04 7.864717267E+01 1.899904236E+01
 -9.469088377E-03 -2.180164477E-03 7.174884454E+04 7.368854744E+01 2.035002818E+01
 -9.541386521E-03 -1.703000209E-03 7.170257137E+04 7.411099120E+01 2.121512654E+01
 -7.099897139E-03 -1.713200020E-03 7.208346427E+04 6.804282529E+01 2.291325389E+01
 -7.155529161E-03 -1.340623758E-03 7.203191314E+04 6.850506187E+01 2.393215302E+01
 -4.987201678E-03 -1.297310121E-03 7.243996130E+04 5.962573870E+01 2.640095736E+01
 -5.027970215E-03 -1.017999692E-03 7.237942551E+04 6.017155858E+01 2.762067457E+01
 -3.108346803E-03 -9.279047683E-04 7.288265185E+04 4.962566456E+01 3.089067765E+01
 -3.135895774E-03 -7.315387269E-04 7.281501745E+04 5.017381249E+01 3.231186628E+01
 -1.442497123E-03 -6.007631368E-04 7.308595647E+04 3.375616216E+01 4.077850124E+01
 -1.458324411E-03 -4.779400756E-04 7.300032925E+04 3.446671151E+01 4.243796115E+01
 2.950318352E-05 -3.119902977E-04 7.301266059E+04 2.246087351E+01 4.826467843E+01
 2.403397564E-05 -2.541545121E-04 7.290928923E+04 2.338775124E+01 5.008132876E+01
 -4.904860300E+00 -3.743658139E-01 6.969849898E+04 1.017480979E+02 1.615518124E-02
 -4.531164623E+00 -3.338231025E-01 6.969858789E+04 1.017466665E+02 2.530964623E-02
 -4.185032909E+00 -2.962594289E-01 6.969874614E+04 1.017439195E+02 4.642626174E-02
 -3.864485757E+00 -2.614611047E-01 6.969886768E+04 1.017413205E+02 7.158600469E-02
 -3.567683127E+00 -2.292294756E-01 6.969900328E+04 1.017386595E+02 9.892842566E-02
 -3.290982635E+00 -2.098682278E-01 6.969922570E+04 1.017354325E+02 1.281436910E-01
 -3.034488341E+00 -1.938749858E-01 6.969952214E+04 1.017315723E+02 1.592598263E-01
 -2.797123150E+00 -1.790640432E-01 6.969985289E+04 1.017273862E+02 1.923894280E-01
 -2.577502509E+00 -1.653500199E-01 6.970022424E+04 1.017227872E+02 2.276884357E-01
 -2.374339922E+00 -1.526535738E-01 6.970064657E+04 1.017176686E+02 2.653561247E-01
 -2.186440119E+00 -1.409009802E-01 6.970112341E+04 1.017119779E+02 3.056125193E-01
 -2.012692696E+00 -1.300237400E-01 6.970166069E+04 1.017056393E+02 3.486966169E-01
 -1.852066192E+00 -1.199582157E-01 6.970226666E+04 1.016985577E+02 3.948706118E-01
 -1.703602570E+00 -1.106452932E-01 6.970294998E+04 1.016906310E+02 4.444199122E-01
 -1.566412086E+00 -1.020300668E-01 6.970372033E+04 1.016817450E+02 4.976536431E-01
 -1.439668506E+00 -9.406154711E-02 6.970458889E+04 1.016717680E+02 5.549058937E-01
 -1.322604655E+00 -8.669238861E-02 6.970556842E+04 1.016605503E+02 6.165368552E-01
 -1.214508275E+00 -7.987863685E-02 6.970667347E+04 1.016479210E+02 6.829340568E-01
 -1.114718164E+00 -7.357949304E-02 6.970792069E+04 1.016336844E+02 7.545137634E-01
 -1.022620594E+00 -6.775709521E-02 6.970932911E+04 1.016176167E+02 8.317224373E-01
 -9.376459635E-01 -6.237631454E-02 6.971092059E+04 1.015994608E+02 9.150382513E-01
 -8.592656892E-01 -5.740456577E-02 6.971272013E+04 1.015789222E+02 1.004972661E+00
 -7.869893145E-01 -5.281163071E-02 6.971475642E+04 1.015556624E+02 1.102071989E+00
 -7.203618152E-01 -4.856949382E-02 6.971706237E+04 1.015292930E+02 1.206919064E+00
 -6.589610941E-01 -4.465218899E-02 6.971967571E+04 1.014993675E+02 1.320134824E+00
 -6.023956504E-01 -4.103565651E-02 6.972263971E+04 1.014653731E+02 1.442380048E+00
 -5.503024102E-01 -3.769760965E-02 6.972600403E+04 1.014267207E+02 1.574357085E+00
 -5.023447090E-01 -3.461740993E-02 6.972982559E+04 1.013827330E+02 1.716811770E+00
 -4.582104147E-01 -3.177595037E-02 6.973416967E+04 1.013326322E+02 1.870534699E+00
 -4.176101819E-01 -2.915554624E-02 6.973911111E+04 1.012755239E+02 2.036364242E+00
 -3.802758273E-01 -2.673983254E-02 6.974473569E+04 1.012103811E+02 2.215189386E+00
 -3.459588199E-01 -2.451366780E-02 6.975114164E+04 1.011360276E+02 2.407949886E+00
 -3.144288760E-01 -2.246304369E-02 6.975844135E+04 1.010510995E+02 2.615644694E+00
 -2.854726531E-01 -2.057500014E-02 6.976676380E+04 1.009540347E+02 2.839328062E+00
 -2.588925350E-01 -1.883754544E-02 6.977625644E+04 1.008430502E+02 3.080114241E+00
 -2.345055028E-01 -1.723958136E-02 6.978708828E+04 1.007160982E+02 3.339197558E+00
 -2.121420846E-01 -1.577083278E-02 6.979945332E+04 1.005708068E+02 3.617876948E+00
 -1.916453799E-01 -1.442178195E-02 6.981357276E+04 1.004044436E+02 3.917520382E+00
 -1.728701518E-01 -1.318360711E-02 6.982969941E+04 1.002138761E+02 4.239576638E+00
 -1.556819842E-01 -1.204812548E-02 6.984812381E+04 9.999547838E+01 4.585641282E+00
 -1.399564983E-01 -1.100774061E-02 6.986917936E+04 9.974505686E+01 4.957453060E+00
 -1.255786244E-01 -1.005539395E-02 6.989324833E+04 9.945775525E+01 5.356908433E+00
 -1.124419257E-01 -9.184520667E-03 6.992077015E+04 9.912793102E+01 5.786101509E+00
 -1.004479699E-01 -8.389009596E-03 6.995225143E+04 9.874899383E+01 6.247363897E+00
 -8.950574608E-02 -7.663167189E-03 6.998827808E+04 9.831322693E+01 6.743302867E+00
 -7.953112272E-02 -7.001685271E-03 7.002952900E+04 9.781151180E+01 7.276853672E+00
 -7.044634476E-02 -6.399612390E-03 7.007679796E+04 9.723307011E+01 7.851341379E+00
 -6.217956662E-02 -5.852328539E-03 7.013101171E+04 9.656485690E+01 8.470568805E+00
 -5.466441881E-02 -5.355522768E-03 7.019327131E+04 9.579144144E+01 9.138922395E+00
 -4.783960555E-02 -4.905173250E-03 7.026482649E+04 9.489333244E+01 9.861459869E+00
 -4.164853145E-02 -4.497529754E-03 7.034708031E+04 9.385127110E+01 1.064528500E+01
 -3.604447422E-02 -4.088802185E-03 7.044088731E+04 9.264360892E+01 1.151171212E+01
 -3.099679285E-02 -3.539154188E-03 7.054705830E+04 9.124706272E+01 1.249106288E+01
 -2.643517524E-02 -3.043353648E-03 7.066860227E+04 8.961736240E+01 1.359539588E+01
 -2.231883324E-02 -2.596836940E-03 7.080923698E+04 8.767711594E+01 1.483982179E+01
 -1.861016084E-02 -2.195382533E-03 7.097317514E+04 8.536010193E+01 1.625519607E+01
 -1.527449715E-02 -1.835089895E-03 7.116374806E+04 8.252283157E+01 1.789629640E+01
 -1.227990654E-02 -1.512359290E-03 7.139009955E+04 7.907080338E+01 1.981360269E+01
 -9.596974582E-03 -1.223872403E-03 7.165175175E+04 7.457175867E+01 2.215413157E+01
 -7.198618791E-03 -9.665736857E-04 7.197497438E+04 6.901079936E+01 2.502266770E+01
 -5.059912987E-03 -7.376523358E-04 7.231272071E+04 6.077289980E+01 2.890908390E+01
 -3.157924337E-03 -5.345242688E-04 7.274010082E+04 5.078427330E+01 3.381038549E+01
 -1.471561989E-03 -3.548129037E-04 7.290597841E+04 3.524104960E+01 4.419019740E+01
 1.856476775E-05 -1.963187265E-04 7.279638060E+04 2.438379667E+01 5.199688691E+01
 -4.916318661E+00 -1.667794339E-01 6.969740156E+04 1.017524354E+02 1.678513403E-02
 -4.541411952E+00 -1.444180780E-01 6.969745315E+04 1.017516151E+02 2.596418408E-02
 -4.194158585E+00 -1.236947965E-01 6.969754455E+04 1.017500713E+02 4.713229282E-02
 -3.872572733E+00 -1.044921581E-01 6.969761317E+04 1.017486273E+02 7.235342183E-02
 -3.574808384E+00 -8.670101200E-02 6.969769514E+04 1.017471059E+02 9.977508318E-02
 -3.297509546E+00 -7.879125168E-02 6.969784712E+04 1.017451011E+02 1.291087423E-01
 -3.040510875E+00 -7.299774551E-02 6.969806020E+04 1.017425470E+02 1.603833173E-01
 -2.802678938E+00 -6.762581256E-02 6.969830163E+04 1.017397008E+02 1.936893156E-01
 -2.582626457E+00 -6.264513287E-02 6.969857626E+04 1.017364930E+02 2.291815383E-01
 -2.379064403E+00 -5.802752570E-02 6.969889307E+04 1.017328336E+02 2.670649338E-01
 -2.190795156E+00 -5.374679999E-02 6.969925526E+04 1.017286776E+02 3.075634836E-01
 -2.016706126E+00 -4.977861572E-02 6.969966798E+04 1.017239597E+02 3.509197133E-01
 -1.855763821E+00 -4.610035550E-02 6.970013854E+04 1.017185962E+02 3.974002784E-01
 -1.707008322E+00 -4.269100543E-02 6.970067482E+04 1.017124955E+02 4.472956942E-01
 -1.569548133E+00 -3.953104468E-02 6.970128565E+04 1.017055537E+02 5.009206582E-01
 -1.442555396E+00 -3.660234300E-02 6.970198134E+04 1.016976499E+02 5.586156162E-01
 -1.325261426E+00 -3.388806564E-02 6.970277375E+04 1.016886451E+02 6.207480982E-01
 -1.216952564E+00 -3.137258510E-02 6.970367653E+04 1.016783792E+02 6.877140438E-01
 -1.116966309E+00 -2.904139915E-02 6.970470538E+04 1.016666679E+02 7.599393427E-01
 -1.024687726E+00 -2.688105470E-02 6.970587841E+04 1.016532981E+02 8.378814700E-01
 -9.395460929E-01 -2.487907690E-02 6.970721647E+04 1.016380243E+02 9.220311713E-01
 -8.610117882E-01 -2.302390328E-02 6.970874359E+04 1.016205632E+02 1.012914222E+00
 -7.885933908E-01 -2.130482219E-02 6.971048746E+04 1.016005879E+02 1.111093238E+00
 -7.218349822E-01 -1.971191552E-02 6.971247998E+04 1.015777210E+02 1.217169563E+00
 -6.603136357E-01 -1.823600495E-02 6.971475785E+04 1.015515276E+02 1.331785187E+00
 -6.036370808E-01 -1.686860169E-02 6.971736336E+04 1.015215060E+02 1.455624717E+00
 -5.514415299E-01 -1.560185920E-02 6.972034512E+04 1.014870777E+02 1.589417367E+00
 -5.033896567E-01 -1.442852864E-02 6.972375907E+04 1.014475766E+02 1.733939127E+00
 -4.591687156E-01 -1.334191676E-02 6.972766948E+04 1.014022349E+02 1.890015260E+00
 -4.184887919E-01 -1.233584600E-02 6.973215017E+04 1.013501686E+02 2.058522533E+00
 -3.810811750E-01 -1.140461652E-02 6.973728593E+04 1.012903610E+02 2.240392226E+00
 -3.466968446E-01 -1.054297008E-02 6.974317391E+04 1.012216414E+02 2.436614940E+00
 -3.151050637E-01 -9.746055472E-03 6.974992561E+04 1.011426666E+02 2.648238632E+00
 -2.860920695E-01 -9.009395564E-03 6.975766898E+04 1.010518847E+02 2.876382306E+00
 -2.594598563E-01 -8.328855812E-03 6.976655010E+04 1.009475039E+02 3.122241247E+00
 -2.350250442E-01 -7.700614246E-03 6.977673595E+04 1.008274849E+02 3.387071681E+00
 -2.126178268E-01 -7.121132997E-03 6.978841874E+04 1.006894930E+02 3.672227815E+00
 -1.920809935E-01 -6.587131389E-03 6.980181897E+04 1.005308092E+02 3.979206225E+00
 -1.732690205E-01 -6.095560758E-03 6.981718734E+04 1.003483013E+02 4.309585033E+00
 -1.560472259E-01 -5.643581074E-03 6.983481065E+04 1.001383748E+02 4.665048411E+00
 -1.402909847E-01 -5.228539529E-03 6.985501872E+04 9.989686220E+01 5.047471402E+00
 -1.258849994E-01 -4.847951167E-03 6.987818994E+04 9.961893641E+01 5.458912368E+00
 -1.127226225E-01 -4.499481676E-03 6.990475848E+04 9.929899531E+01 5.901641108E+00
 -1.007052272E-01 -4.180932382E-03 6.993522443E+04 9.893049812E+01 6.378188354E+00
 -8.974162247E-02 -3.890227447E-03 6.997016622E+04 9.850578230E+01 6.891405130E+00
 -7.974751059E-02 -3.625403195E-03 7.001025339E+04 9.801579586E+01 7.444523149E+00
 -7.064498309E-02 -3.384599482E-03 7.005626768E+04 9.744985049E+01 8.041218173E+00
 -6.236205285E-02 -3.166052939E-03 7.010912068E+04 9.679500805E+01 8.685723150E+00
 -5.483221984E-02 -2.968091775E-03 7.016989592E+04 9.603597476E+01 9.382930880E+00
 -4.799406799E-02 -2.789131844E-03 7.023982217E+04 9.515338557E+01 1.013853429E+01
 -4.179089101E-02 -2.627673874E-03 7.032028524E+04 9.412803401E+01 1.096013308E+01
 -3.617451306E-02 -2.446110116E-03 7.041212562E+04 9.293869351E+01 1.186871437E+01
 -3.110941467E-02 -2.118302931E-03 7.051614389E+04 9.156167237E+01 1.289423544E+01
 -2.653205295E-02 -1.822975875E-03 7.063533074E+04 8.995309578E+01 1.404979575E+01
 -2.240149971E-02 -1.557359664E-03 7.077325066E+04 8.803610882E+01 1.535388836E+01
 -1.868001990E-02 -1.318887050E-03 7.093409620E+04 8.574650853E+01 1.683862159E+01
 -1.533283377E-02 -1.105182102E-03 7.112085940E+04 8.293979009E+01 1.856390360E+01
 -1.232789619E-02 -9.140496521E-04 7.134291500E+04 7.952599554E+01 2.058113167E+01
 -9.635691873E-03 -7.434648972E-04 7.159850462E+04 7.507088056E+01 2.304860068E+01
 -7.229045422E-03 -5.915630880E-04 7.191505313E+04 6.955979738E+01 2.607343689E+01
 -5.082945124E-03 -4.566292416E-04 7.224262002E+04 6.142066886E+01 3.016037488E+01
 -3.174379409E-03 -3.370873293E-04 7.266116714E+04 5.145040308E+01 3.527606419E+01
 -1.482184951E-03 -2.314876141E-04 7.280649648E+04 3.608132988E+01 4.592449141E+01
 1.309555987E-05 -1.384829409E-04 7.267771340E+04 2.544958943E+01 5.390402271E+01
 -4.919121367E+00 4.110405248E-02 6.969630080E+04 1.017568041E+02 1.717868685E-02
 -4.543667214E+00 4.526084733E-02 6.969631505E+04 1.017565918E+02 2.638924383E-02
 -4.195906823E+00 4.912231921E-02 6.969633924E+04 1.017562476E+02 4.762269000E-02
 -3.873851462E+00 5.270946849E-02 6.969635475E+04 1.017559560E+02 7.290987159E-02
 -3.575652417E+00 5.604183560E-02 6.969638345E+04 1.017555729E+02 1.003960045E-01
 -3.298243007E+00 5.248249401E-02 6.969646480E+04 1.017547983E+02 1.298127417E-01
 -3.041191535E+00 4.806069343E-02 6.969659360E+04 1.017535656E+02 1.612006157E-01
 -2.803310747E+00 4.397921241E-02 6.969674480E+04 1.017520740E+02 1.946405439E-01
 -2.583213079E+00 4.021322565E-02 6.969692196E+04 1.017502714E+02 2.302865030E-01
 -2.379609234E+00 3.673967389E-02 6.969713233E+04 1.017480861E+02 2.683469187E-01
 -2.191301344E+00 3.353714145E-02 6.969737882E+04 1.017454801E+02 3.090485343E-01
 -2.017176590E+00 3.058574153E-02 6.969766584E+04 1.017423988E+02 3.526365629E-01
 -1.856201267E+00 2.786700869E-02 6.969799974E+04 1.017387702E+02 3.993814226E-01
 -1.707415257E+00 2.536379838E-02 6.969838752E+04 1.017345135E+02 4.495783762E-01
 -1.569926882E+00 2.306019284E-02 6.969883718E+04 1.017295355E+02 5.035476322E-01
 -1.442908111E+00 2.094141315E-02 6.969935810E+04 1.017237265E+02 5.616360440E-01
 -1.325590103E+00 1.899373707E-02 6.969996123E+04 1.017169588E+02 6.242185819E-01
 -1.217259050E+00 1.720442230E-02 6.970065926E+04 1.017090836E+02 6.916997442E-01
 -1.117252319E+00 1.556163478E-02 6.970146692E+04 1.016999281E+02 7.645152299E-01
 -1.024954845E+00 1.405438197E-02 6.970240131E+04 1.016892911E+02 8.431337466E-01
 -9.397957899E-01 1.267245057E-02 6.970348226E+04 1.016769388E+02 9.280588854E-01
 -8.612454246E-01 1.140634866E-02 6.970473275E+04 1.016625999E+02 1.019831090E+00
 -7.888122270E-01 1.024725192E-02 6.970617940E+04 1.016459596E+02 1.119029705E+00
 -7.220401852E-01 9.186953797E-03 6.970785302E+04 1.016266527E+02 1.226275099E+00
 -6.605062860E-01 8.217819395E-03 6.970978923E+04 1.016042563E+02 1.342230855E+00
 -6.038181788E-01 7.332742968E-03 6.971202921E+04 1.015782808E+02 1.467606039E+00
 -5.516120017E-01 6.525108832E-03 6.971462047E+04 1.015481596E+02 1.603157592E+00
 -5.035503593E-01 5.788755583E-03 6.971761782E+04 1.015132381E+02 1.749692880E+00
 -4.593204420E-01 5.117943479E-03 6.972108442E+04 1.014727603E+02 1.908072355E+00
 -4.186322755E-01 4.507324850E-03 6.972509297E+04 1.014258536E+02 2.079212470E+00
 -3.812170940E-01 3.951917389E-03 6.972972709E+04 1.013715119E+02 2.264089604E+00
 -3.468258260E-01 3.447080190E-03 6.973508281E+04 1.013085767E+02 2.463742553E+00
 -3.152276866E-01 2.988492341E-03 6.974127038E+04 1.012357123E+02 2.679278481E+00
 -2.862088685E-01 2.572133887E-03 6.974841632E+04 1.011513832E+02 2.911878116E+00
 -2.595713247E-01 2.194268946E-03 6.975666564E+04 1.010538210E+02 3.162802127E+00
 -2.351316366E-01 1.851430731E-03 6.976618381E+04 1.009409767E+02 3.433404215E+00
 -2.127199621E-01 1.540408190E-03 6.977716007E+04 1.008105173E+02 3.725116126E+00
 -1.921790570E-01 1.258234004E-03 6.978981247E+04 1.006597775E+02 4.039491731E+00
 -1.733633664E-01 1.002173603E-03 6.980439067E+04 1.004856438E+02 4.378263270E+00
 -1.561381792E-01 7.697149050E-04 6.982117837E+04 1.002845263E+02 4.743265291E+00
 -1.403788436E-01 5.585584831E-04 6.984050032E+04 1.000522989E+02 5.136477890E+00
 -1.259700372E-01 3.666078750E-04 6.986272997E+04 9.978417047E+01 5.560124442E+00
 -1.128050892E-01 1.919598031E-04 6.988829588E+04 9.947458214E+01 6.016669243E+00
 -1.007853513E-01 3.289411027E-05 6.991769064E+04 9.911705153E+01 6.508861101E+00
 -8.981961295E-02 -1.121367116E-04 6.995148351E+04 9.870398874E+01 7.039799808E+00
 -7.982355820E-02 -2.445184630E-04 6.999033278E+04 9.822643003E+01 7.613010483E+00
 -7.071926203E-02 -3.654866723E-04 7.003500615E+04 9.767379831E+01 8.232524610E+00
 -6.243472219E-02 -4.761384370E-04 7.008639717E+04 9.703329237E+01 8.903007497E+00
 -5.490342485E-02 -5.774444930E-04 7.014556767E+04 9.628978563E+01 9.629889036E+00
 -4.806394139E-02 -6.702613047E-04 7.021372052E+04 9.542412373E+01 1.041953162E+01
 -4.185955416E-02 -7.553431512E-04 7.029222134E+04 9.441701802E+01 1.128015529E+01
 -3.624072361E-02 -8.012757668E-04 7.038192851E+04 9.324734342E+01 1.223251043E+01
 -3.116713987E-02 -6.955999761E-04 7.048363778E+04 9.189102923E+01 1.330564533E+01
 -2.658210622E-02 -6.010120220E-04 7.060029537E+04 9.030492456E+01 1.451344726E+01
 -2.244462647E-02 -5.165384599E-04 7.073529336E+04 8.841279820E+01 1.587745709E+01
 -1.871690299E-02 -4.412677488E-04 7.089282954E+04 8.615234900E+01 1.743057347E+01
 -1.536409836E-02 -3.743499244E-04 7.107552971E+04 8.337830086E+01 1.923724039E+01
 -1.235411436E-02 -3.149957175E-04 7.129304187E+04 8.000555716E+01 2.134987951E+01
 -9.657386803E-03 -2.624751300E-04 7.154228580E+04 7.560051481E+01 2.393769387E+01
 -7.246695270E-03 -2.161154707E-04 7.185178948E+04 7.014666001E+01 2.711124514E+01
 -5.096986561E-03 -1.752987973E-04 7.216895349E+04 6.211150004E+01 3.139063608E+01
 -3.185210909E-03 -1.394583434E-04 7.257812435E+04 5.217130399E+01 3.671985109E+01
 -1.490169806E-03 -1.080723096E-04 7.270208745E+04 3.698825061E+01 4.765069475E+01
 7.626351982E-06 -8.064715534E-05 7.255380215E+04 2.658457402E+01 5.581312728E+01
 -4.913313371E+00 2.489252871E-01 6.969519717E+04 1.017611883E+02 1.726442522E-02
 -4.537971906E+00 2.348819175E-01 6.969517380E+04 1.017615889E+02 2.649145190E-02
 -4.190315926E+00 2.218856624E-01 6.969513002E+04 1.017624542E+02 4.777078155E-02
 -3.868357290E+00 2.098611395E-01 6.969509181E+04 1.017633226E+02 7.312934360E-02
 -3.570247831E+00 1.987383075E-01 6.969506696E+04 1.017640823E+02 1.007048076E-01
 -3.293213140E+00 1.837124964E-01 6.969507729E+04 1.017645442E+02 1.302249736E-01
 -3.036558096E+00 1.690785624E-01 6.969512114E+04 1.017646419E+02 1.617291294E-01
 -2.799044182E+00 1.555466093E-01 6.969518138E+04 1.017645146E+02 1.952942907E-01
 -2.579285969E+00 1.430366828E-01 6.969526034E+04 1.017641269E+02 2.310775100E-01
 -2.375996149E+00 1.314744989E-01 6.969536343E+04 1.017634266E+02 2.692915264E-01
 -2.187978698E+00 1.207910495E-01 6.969549321E+04 1.017623829E+02 3.101669441E-01
 -2.014122514E+00 1.109222343E-01 6.969565339E+04 1.017609515E+02 3.539531881E-01
 -1.853395485E+00 1.018085178E-01 6.969584931E+04 1.017590724E+02 4.009253601E-01
 -1.704838972E+00 9.339460870E-02 6.969608709E+04 1.017566762E+02 4.513838910E-01
 -1.567562672E+00 8.562916190E-02 6.969637383E+04 1.017536805E+02 5.056547631E-01
 -1.440739831E+00 7.846449975E-02 6.969671799E+04 1.017499873E+02 5.640913658E-01
 -1.323602794E+00 7.185635285E-02 6.969712955E+04 1.017454804E+02 6.270761361E-01
 -1.215438854E+00 6.576361824E-02 6.969762021E+04 1.017400228E+02 6.950221215E-01
 -1.115586398E+00 6.014813424E-02 6.969820369E+04 1.017334537E+02 7.683748061E-01
 -1.023431313E+00 5.497447069E-02 6.969889603E+04 1.017255841E+02 8.476140955E-01
 -9.384036393E-01 5.020973366E-02 6.969971598E+04 1.017161929E+02 9.332563824E-01
 -8.599744654E-01 4.582338379E-02 6.970068541E+04 1.017050213E+02 1.025856722E+00
 -7.876530280E-01 4.178706730E-02 6.970182982E+04 1.016917672E+02 1.126011102E+00
 -7.209840189E-01 3.807445889E-02 6.970317885E+04 1.016760784E+02 1.234358821E+00
 -6.595450776E-01 3.466111593E-02 6.970476696E+04 1.016575450E+02 1.351584948E+00
 -6.029444592E-01 3.152434310E-02 6.970663412E+04 1.016356900E+02 1.478422898E+00
 -5.508188633E-01 2.864306698E-02 6.970882664E+04 1.016099601E+02 1.615657124E+00
 -5.028314152E-01 2.599771992E-02 6.971139814E+04 1.015797131E+02 1.764125981E+00
 -4.586697881E-01 2.357013274E-02 6.971441054E+04 1.015442056E+02 1.924724815E+00
 -4.180444552E-01 2.134343560E-02 6.971793529E+04 1.015025776E+02 2.098409394E+00
 -3.806870651E-01 1.930196670E-02 6.972205475E+04 1.014538355E+02 2.286199593E+00
 -3.463489306E-01 1.743118818E-02 6.972686363E+04 1.013968325E+02 2.489183920E+00
 -3.147996224E-01 1.571760884E-02 6.973247084E+04 1.013302464E+02 2.708524066E+00
 -2.858256628E-01 1.414871312E-02 6.973900139E+04 1.012525527E+02 2.945462197E+00
 -2.592293095E-01 1.271289586E-02 6.974659859E+04 1.011619997E+02 3.201328434E+00