TITLE     = "fluent22.1.0  build-id: 10213"
VARIABLES = "X"
"Y"
"Pressure"
"X Velocity"
"Y Velocity"
DATASETAUXDATA Common.DensityVar="23"
DATASETAUXDATA Common.PressureVar="3"
DATASETAUXDATA Common.TemperatureVar="12"
DATASETAUXDATA Common.TurbulentDynamicViscosityVar="17"
DATASETAUXDATA Common.UVar="5"
DATASETAUXDATA Common.VectorVarsAreVelocity="TRUE"
DATASETAUXDATA Common.ViscosityVar="25"
DATASETAUXDATA Common.VVar="7"
ZONE T="fluid"
 STRANDID=1, SOLUTIONTIME=1.2125
 Nodes=10240, Elements=10080, ZONETYPE=FEQuadrilateral
 DATAPACKING=POINT
 DT=(DOUBLE DOUBLE DOUBLE DOUBLE DOUBLE )
 -4.856290020E+00 -7.872354469E-01 6.970073856E+04 1.017393999E+02 1.410280224E-02
 -4.486984206E+00 -7.105121188E-01 6.970090650E+04 1.017367140E+02 2.323712793E-02
 -4.884823481E+00 -5.813004056E-01 6.969965029E+04 1.017436137E+02 1.527259354E-02
 -4.512997554E+00 -5.226310119E-01 6.969977789E+04 1.017415567E+02 2.445108736E-02
 -4.144918381E+00 -6.394359903E-01 6.970120315E+04 1.017315189E+02 4.437183759E-02
 -4.168597570E+00 -4.682773544E-01 6.970000428E+04 1.017375812E+02 4.565477009E-02
 -3.828136432E+00 -5.736019149E-01 6.970143340E+04 1.017265641E+02 6.962017917E-02
 -3.849654051E+00 -4.179298131E-01 6.970017922E+04 1.017337939E+02 7.095354568E-02
 -3.534819950E+00 -5.126331199E-01 6.970168182E+04 1.017215403E+02 9.703585905E-02
 -3.554336173E+00 -3.713005145E-01 6.970037019E+04 1.017299436E+02 9.844206782E-02
 -3.260762245E+00 -4.705038577E-01 6.970204912E+04 1.017157926E+02 1.262133624E-01
 -3.278718023E+00 -3.405279282E-01 6.970066563E+04 1.017254410E+02 1.277574405E-01
 -3.006615634E+00 -4.342337290E-01 6.970251434E+04 1.017092601E+02 1.571805038E-01
 -3.023176193E+00 -3.143712225E-01 6.970104836E+04 1.017202221E+02 1.589225665E-01
 -2.771422962E+00 -4.006580305E-01 6.970302669E+04 1.017023255E+02 1.901209661E-01
 -2.786692375E+00 -2.901546690E-01 6.970147179E+04 1.017146422E+02 1.920884531E-01
 -2.553812356E+00 -3.695819404E-01 6.970359504E+04 1.016948720E+02 2.251993893E-01
 -2.567887163E+00 -2.677380384E-01 6.970194364E+04 1.017085967E+02 2.274172221E-01
 -2.352509102E+00 -3.408244256E-01 6.970423169E+04 1.016867696E+02 2.626056711E-01
 -2.365478844E+00 -2.469910242E-01 6.970247551E+04 1.017019640E+02 2.651037530E-01
 -2.166328881E+00 -3.142172793E-01 6.970494118E+04 1.016779481E+02 3.025555050E-01
 -2.178276593E+00 -2.277925500E-01 6.970307133E+04 1.016946828E+02 3.053670842E-01
 -1.994171457E+00 -2.896042271E-01 6.970573131E+04 1.016683076E+02 3.452840031E-01
 -2.005174132E+00 -2.100301263E-01 6.970373794E+04 1.016866646E+02 3.484456904E-01
 -1.835014814E+00 -2.668400954E-01 6.970661200E+04 1.016577313E+02 3.910472065E-01
 -1.845143835E+00 -1.935992522E-01 6.970448449E+04 1.016778025E+02 3.945994948E-01
 -1.687909691E+00 -2.457900368E-01 6.970759350E+04 1.016460962E+02 4.401227532E-01
 -1.697231226E+00 -1.784028583E-01 6.970532048E+04 1.016679834E+02 4.441108454E-01
 -1.551974490E+00 -2.263288102E-01 6.970868718E+04 1.016332656E+02 4.928110044E-01
 -1.560549868E+00 -1.643507890E-01 6.970625648E+04 1.016570813E+02 4.972854030E-01
 -1.426390543E+00 -2.083401098E-01 6.970990593E+04 1.016190862E+02 5.494356699E-01
 -1.434276598E+00 -1.513593203E-01 6.970730456E+04 1.016449535E+02 5.544531071E-01
 -1.310397700E+00 -1.917159419E-01 6.971126423E+04 1.016033862E+02 6.103447325E-01
 -1.317647090E+00 -1.393507116E-01 6.970847838E+04 1.016314387E+02 6.159691923E-01
 -1.203290221E+00 -1.763560443E-01 6.971277840E+04 1.015859729E+02 6.759115698E-01
 -1.209951734E+00 -1.282527890E-01 6.970979344E+04 1.016163547E+02 6.822153735E-01
 -1.104412962E+00 -1.621673464E-01 6.971446687E+04 1.015666288E+02 7.465360857E-01
 -1.110531786E+00 -1.179985566E-01 6.971126730E+04 1.015994944E+02 7.536011102E-01
 -1.013157812E+00 -1.490634664E-01 6.971635051E+04 1.015451079E+02 8.226458697E-01
 -1.018775797E+00 -1.085258363E-01 6.971292000E+04 1.015806222E+02 8.305649080E-01
 -9.289603823E-01 -1.369642444E-01 6.971845300E+04 1.015211314E+02 9.046973978E-01
 -9.341162809E-01 -9.977693120E-02 6.971477434E+04 1.015594697E+02 9.135756472E-01
 -8.512969304E-01 -1.257953063E-01 6.972080121E+04 1.014943831E+02 9.931772176E-01
 -8.560266203E-01 -9.169831325E-02 6.971685634E+04 1.015357306E+02 1.003133956E+00
 -7.796814889E-01 -1.154876594E-01 6.972342567E+04 1.014645032E+02 1.088603029E+00
 -7.840181801E-01 -8.424033220E-02 6.971919567E+04 1.015090550E+02 1.099773587E+00
 -7.136631990E-01 -1.059773154E-01 6.972636113E+04 1.014310819E+02 1.191524913E+00
 -7.176376266E-01 -7.735694457E-02 6.972182622E+04 1.014790429E+02 1.204062907E+00
 -6.528238277E-01 -9.720493866E-02 6.972964714E+04 1.013936523E+02 1.302526353E+00
 -6.564644312E-01 -7.100546123E-02 6.972478673E+04 1.014452365E+02 1.316606222E+00
 -5.967754582E-01 -8.911551972E-02 6.973332877E+04 1.013516820E+02 1.422225604E+00
 -6.001085477E-01 -6.514631217E-02 6.972812143E+04 1.014071120E+02 1.438045117E+00
 -5.451583407E-01 -8.165807034E-02 6.973745739E+04 1.013045622E+02 1.551276700E+00
 -5.482082516E-01 -5.974282724E-02 6.973188093E+04 1.013640693E+02 1.569059515E+00
 -4.976388934E-01 -7.478533948E-02 6.974209164E+04 1.012515976E+02 1.690370144E+00
 -5.004281298E-01 -5.476103148E-02 6.973612309E+04 1.013154210E+02 1.710369918E+00
 -4.539078426E-01 -6.845354833E-02 6.974729839E+04 1.011919950E+02 1.840233290E+00
 -4.564572106E-01 -5.016945417E-02 6.974091404E+04 1.012603791E+02 1.862738958E+00
 -4.136784930E-01 -6.262214316E-02 6.975315404E+04 1.011248424E+02 2.001635696E+00
 -4.160072244E-01 -4.593895037E-02 6.974632952E+04 1.011980406E+02 2.026970706E+00
 -3.766851181E-01 -5.725356445E-02 6.975974583E+04 1.010490937E+02 2.175384974E+00
 -3.788109857E-01 -4.204253410E-02 6.975245623E+04 1.011273711E+02 2.203916443E+00
 -3.426814645E-01 -5.231303130E-02 6.976717311E+04 1.009635544E+02 2.362325760E+00
 -3.446208882E-01 -3.845522227E-02 6.975939296E+04 1.010471756E+02 2.394475529E+00
 -3.114393592E-01 -4.776833998E-02 6.977555010E+04 1.008668651E+02 2.563350225E+00
 -3.132075054E-01 -3.515388861E-02 6.976725282E+04 1.009560889E+02 2.599591728E+00
 -2.827474160E-01 -4.358967555E-02 6.978500784E+04 1.007574551E+02 2.779406500E+00
 -2.843582893E-01 -3.211712689E-02 6.977616588E+04 1.008525511E+02 2.820263422E+00
 -2.564098313E-01 -3.974943585E-02 6.979569537E+04 1.006335149E+02 3.011496315E+00
 -2.578763601E-01 -2.932512282E-02 6.978628088E+04 1.007347693E+02 3.057551832E+00
 -2.322452656E-01 -3.622206693E-02 6.980778298E+04 1.004929774E+02 3.260662644E+00
 -2.335793811E-01 -2.675953425E-02 6.979776777E+04 1.006006735E+02 3.312596384E+00
 -2.100858027E-01 -3.298390943E-02 6.982146601E+04 1.003334620E+02 3.528006767E+00
 -2.112985123E-01 -2.440337897E-02 6.981082086E+04 1.004478831E+02 3.586592258E+00
 -1.897759827E-01 -3.001305520E-02 6.983696850E+04 1.001522246E+02 3.814710163E+00
 -1.908774386E-01 -2.224093014E-02 6.982566245E+04 1.002736674E+02 3.880798309E+00
 -1.711719028E-01 -2.728921383E-02 6.985454717E+04 9.994610299E+01 4.122034696E+00
 -1.721714650E-01 -2.025761865E-02 6.984254769E+04 1.000748718E+02 4.196584042E+00
 -1.541403818E-01 -2.479358848E-02 6.987449628E+04 9.971144694E+01 4.451329849E+00
 -1.550466773E-01 -1.843994259E-02 6.986176927E+04 9.984785426E+01 4.535425955E+00
 -1.385581835E-01 -2.250876096E-02 6.989715374E+04 9.944403304E+01 4.804053626E+00
 -1.393791607E-01 -1.677538322E-02 6.988366277E+04 9.958840442E+01 4.898919376E+00
 -1.243112954E-01 -2.041858527E-02 6.992290788E+04 9.913896179E+01 5.181788518E+00
 -1.250542751E-01 -1.525232757E-02 6.990861361E+04 9.929164071E+01 5.288802309E+00
 -1.112942582E-01 -1.850808977E-02 6.995220583E+04 9.879053780E+01 5.586265533E+00
 -1.119659806E-01 -1.385999732E-02 6.993706524E+04 9.895188946E+01 5.706984007E+00
 -9.940954358E-02 -1.676338714E-02 6.998556364E+04 9.839210437E+01 6.019391171E+00
 -1.000162120E-01 -1.258838367E-02 6.996952919E+04 9.856252164E+01 6.155579647E+00
 -8.856697555E-02 -1.517159220E-02 7.002357982E+04 9.793585207E+01 6.483286738E+00
 -8.911429722E-02 -1.142818824E-02 7.000659790E+04 9.811576941E+01 6.636936120E+00
 -7.868319397E-02 -1.372074681E-02 7.006694963E+04 9.741253751E+01 6.980307755E+00
 -7.917641773E-02 -1.037076925E-02 7.004895846E+04 9.760245381E+01 7.153674225E+00
 -6.968115599E-02 -1.239975142E-02 7.011648645E+04 9.681123648E+01 7.513044546E+00
 -7.012510728E-02 -9.408093050E-03 7.009741430E+04 9.701172133E+01 7.708751734E+00
 -6.148967338E-02 -1.119830324E-02 7.017313715E+04 9.611877628E+01 8.084354808E+00
 -6.188878678E-02 -8.532690454E-03 7.015290431E+04 9.633043195E+01 8.305498345E+00
 -5.404298316E-02 -1.010684009E-02 7.023802665E+04 9.531958241E+01 8.697566577E+00
 -5.440133242E-02 -7.737617398E-03 7.021654442E+04 9.554304483E+01 8.947705613E+00
 -4.728034895E-02 -9.116488370E-03 7.031243617E+04 9.439390423E+01 9.356350240E+00
 -4.760167492E-02 -7.016419090E-03 7.028960210E+04 9.462989192E+01 9.639597898E+00
 -4.114569121E-02 -8.219016871E-03 7.039780525E+04 9.332235230E+01 1.006686878E+01
 -4.143342762E-02 -6.363097983E-03 7.037349331E+04 9.357177374E+01 1.038773135E+01
 -3.559545773E-02 -7.358315194E-03 7.049500464E+04 9.208298244E+01 1.085218643E+01
 -3.585140936E-02 -5.727692986E-03 7.046905136E+04 9.234700195E+01 1.121555316E+01
 -3.060902893E-02 -6.367098788E-03 7.060488287E+04 9.065243786E+01 1.174357542E+01
 -3.082994495E-02 -4.956648411E-03 7.057709886E+04 9.093236790E+01 1.215384972E+01
 -2.610277987E-02 -5.472285745E-03 7.073058602E+04 8.898475679E+01 1.275040502E+01
 -2.629202836E-02 -4.260793948E-03 7.070072758E+04 8.928268491E+01 1.321174161E+01
 -2.203641496E-02 -4.665736011E-03 7.087601450E+04 8.700197419E+01 1.388225751E+01
 -2.219708196E-02 -3.633772334E-03 7.084377582E+04 8.731992987E+01 1.440143479E+01
 -1.837278212E-02 -3.939930778E-03 7.104540343E+04 8.463485862E+01 1.517004487E+01
 -1.850769364E-02 -3.069708207E-03 7.101046487E+04 8.497622786E+01 1.575371405E+01
 -1.507763872E-02 -3.287930762E-03 7.124251447E+04 8.174395708E+01 1.665874660E+01
 -1.518938118E-02 -2.563176772E-03 7.120436136E+04 8.210960362E+01 1.731921182E+01
 -1.211943445E-02 -2.703336828E-03 7.147608449E+04 7.822683498E+01 1.840339701E+01
 -1.221037352E-02 -2.109174004E-03 7.143436852E+04 7.862195231E+01 1.915146717E+01
 -9.469109841E-03 -2.180252789E-03 7.174769366E+04 7.365733221E+01 2.052055126E+01
 -9.541407844E-03 -1.703088367E-03 7.170102271E+04 7.408356170E+01 2.138641130E+01
 -7.099909296E-03 -1.713250153E-03 7.208143103E+04 6.800941263E+01 2.310819114E+01
 -7.155541255E-03 -1.340673853E-03 7.202941502E+04 6.847605761E+01 2.412797617E+01
 -4.987207615E-03 -1.297334665E-03 7.243627051E+04 5.959172791E+01 2.662757992E+01
 -5.027976131E-03 -1.018024245E-03 7.237521717E+04 6.014230795E+01 2.784811293E+01
 -3.108349007E-03 -9.279139060E-04 7.287728917E+04 4.958751921E+01 3.115025441E+01
 -3.135897974E-03 -7.315478792E-04 7.280907909E+04 5.013967191E+01 3.257326991E+01
 -1.442497533E-03 -6.007648446E-04 7.307426675E+04 3.368784509E+01 4.111339573E+01
 -1.458324822E-03 -4.779417889E-04 7.298786714E+04 3.440465906E+01 4.277517332E+01
 2.950318352E-05 -3.119902977E-04 7.299511175E+04 2.236594312E+01 4.865939693E+01
 2.403397564E-05 -2.541545121E-04 7.289081059E+04 2.330219123E+01 5.047789326E+01
 -4.904860300E+00 -3.743658139E-01 6.969854720E+04 1.017479270E+02 1.625376918E-02
 -4.531165661E+00 -3.338273763E-01 6.969863723E+04 1.017464811E+02 2.546750731E-02
 -4.185034864E+00 -2.962674810E-01 6.969879744E+04 1.017437068E+02 4.672144756E-02
 -3.864488519E+00 -2.614724790E-01 6.969892051E+04 1.017410825E+02 7.204623321E-02
 -3.567686592E+00 -2.292437526E-01 6.969905772E+04 1.017383953E+02 9.956989962E-02
 -3.290986716E+00 -2.098850397E-01 6.969928246E+04 1.017351368E+02 1.289809537E-01
 -3.034492951E+00 -1.938939815E-01 6.969958180E+04 1.017312398E+02 1.603079398E-01
 -2.797128212E+00 -1.790848970E-01 6.969991575E+04 1.017270137E+02 1.936643799E-01
 -2.577507950E+00 -1.653724326E-01 6.970029065E+04 1.017223708E+02 2.292071932E-01
 -2.374345674E+00 -1.526772709E-01 6.970071695E+04 1.017172037E+02 2.671368451E-01
 -2.186446122E+00 -1.409257099E-01 6.970119821E+04 1.017114596E+02 3.076746822E-01
 -2.012698894E+00 -1.300492715E-01 6.970174039E+04 1.017050622E+02 3.510611650E-01
 -1.852072533E+00 -1.199843374E-01 6.970235177E+04 1.016979159E+02 3.975601366E-01
 -1.703609007E+00 -1.106718114E-01 6.970304106E+04 1.016899182E+02 4.474588516E-01
 -1.566418577E+00 -1.020568043E-01 6.970381799E+04 1.016809541E+02 5.010684845E-01
 -1.439675011E+00 -9.408834187E-02 6.970469379E+04 1.016708913E+02 5.587253863E-01
 -1.322611138E+00 -8.671909277E-02 6.970568124E+04 1.016595796E+02 6.207922291E-01
 -1.214514703E+00 -7.990511563E-02 6.970679497E+04 1.016468472E+02 6.876592508E-01
 -1.114724508E+00 -7.360562393E-02 6.970805164E+04 1.016324978E+02 7.597456617E-01
 -1.022626827E+00 -6.778276716E-02 6.970947036E+04 1.016163067E+02 8.375011169E-01
 -9.376520608E-01 -6.240142732E-02 6.971107303E+04 1.015980161E+02 9.214072422E-01
 -8.592716291E-01 -5.742902938E-02 6.971288471E+04 1.015773305E+02 1.011979219E+00
 -7.869950775E-01 -5.283536491E-02 6.971493413E+04 1.015539107E+02 1.109767386E+00
 -7.203673840E-01 -4.859242773E-02 6.971725425E+04 1.015273671E+02 1.215358888E+00
 -6.589664538E-01 -4.467426074E-02 6.971988284E+04 1.014972525E+02 1.329379301E+00
 -6.024007880E-01 -4.105681297E-02 6.972286321E+04 1.014630532E+02 1.452494374E+00
 -5.503073148E-01 -3.771780623E-02 6.972624504E+04 1.014241788E+02 1.585411786E+00
 -5.023493719E-01 -3.463661033E-02 6.973008527E+04 1.013799514E+02 1.728883091E+00
 -4.582148290E-01 -3.179412648E-02 6.973444918E+04 1.013295921E+02 1.883705006E+00
 -4.176143426E-01 -2.917267795E-02 6.973941156E+04 1.012722059E+02 2.050722430E+00
 -3.802797315E-01 -2.675590757E-02 6.974505818E+04 1.012067648E+02 2.230831418E+00
 -3.459624665E-01 -2.452868154E-02 6.975148715E+04 1.011320920E+02 2.424978993E+00
 -3.144322656E-01 -2.247699899E-02 6.975881083E+04 1.010468240E+02 2.634171940E+00
 -2.854757880E-01 -2.058790706E-02 6.976715805E+04 1.009493972E+02 2.859474662E+00
 -2.588954194E-01 -1.884942094E-02 6.977667596E+04 1.008380270E+02 3.102009838E+00
 -2.345081423E-01 -1.725044893E-02 6.978753333E+04 1.007106670E+02 3.362979585E+00
 -2.121444865E-01 -1.578072203E-02 6.979992401E+04 1.005649457E+02 3.643695393E+00
 -1.916475527E-01 -1.443072807E-02 6.981406886E+04 1.003981295E+02 3.945537762E+00
 -1.728721052E-01 -1.319165030E-02 6.983022020E+04 1.002070864E+02 4.269967231E+00
 -1.556837291E-01 -1.205531034E-02 6.984866812E+04 9.998819061E+01 4.618593397E+00
 -1.399580464E-01 -1.101411539E-02 6.986974549E+04 9.973724817E+01 4.993170583E+00
 -1.255799881E-01 -1.006100984E-02 6.989383398E+04 9.944940240E+01 5.395612463E+00
 -1.124431179E-01 -9.189431015E-03 6.992137230E+04 9.911901000E+01 5.828032525E+00
 -1.004490040E-01 -8.393269112E-03 6.995286626E+04 9.873947973E+01 6.292784393E+00
 -8.950663553E-02 -7.666831170E-03 6.998890078E+04 9.830309344E+01 6.792500053E+00
 -7.953188092E-02 -7.004808845E-03 7.003015379E+04 9.780072898E+01 7.330143921E+00
 -7.044698489E-02 -6.402249802E-03 7.007741795E+04 9.722160327E+01 7.909075684E+00
 -6.218010151E-02 -5.854532509E-03 7.013161861E+04 9.655266432E+01 8.533138205E+00
 -5.466486076E-02 -5.357343918E-03 7.019385528E+04 9.577847416E+01 9.206767793E+00
 -4.783996625E-02 -4.906659617E-03 7.026537544E+04 9.487952522E+01 9.935077768E+00
 -4.164882183E-02 -4.498726399E-03 7.034757899E+04 9.383657047E+01 1.072523585E+01
 -3.604470439E-02 -4.089750804E-03 7.044131017E+04 9.262799376E+01 1.159866491E+01
 -3.099697188E-02 -3.539892758E-03 7.054736403E+04 9.123058830E+01 1.258583662E+01
 -2.643531168E-02 -3.043917129E-03 7.066874651E+04 8.960008078E+01 1.369890584E+01
 -2.231893476E-02 -2.597256642E-03 7.080916900E+04 8.765889632E+01 1.495318357E+01
 -1.861023420E-02 -2.195686172E-03 7.097283247E+04 8.534090740E+01 1.637978796E+01
 -1.527454826E-02 -1.835301719E-03 7.116302833E+04 8.250228984E+01 1.803393141E+01
 -1.227994051E-02 -1.512500254E-03 7.138889129E+04 7.904907333E+01 1.996662976E+01
 -9.596995757E-03 -1.223960386E-03 7.164978503E+04 7.454819168E+01 2.232595230E+01
 -7.198630819E-03 -9.666237270E-04 7.197199709E+04 6.898627071E+01 2.521885766E+01
 -5.059918879E-03 -7.376768873E-04 7.230797528E+04 6.074855836E+01 2.913699791E+01
 -3.157926534E-03 -5.345334329E-04 7.273356024E+04 5.075482820E+01 3.407346559E+01
 -1.471562400E-03 -3.548146224E-04 7.289269779E+04 3.518545972E+01 4.452968613E+01
 1.856476775E-05 -1.963187265E-04 7.277690381E+04 2.430676454E+01 5.239543796E+01
 -4.916318661E+00 -1.667794339E-01 6.969744260E+04 1.017522926E+02 1.689102358E-02
 -4.541412981E+00 -1.444223274E-01 6.969749500E+04 1.017514620E+02 2.612969287E-02
 -4.194160524E+00 -1.237028046E-01 6.969758782E+04 1.017498991E+02 4.743581191E-02
 -3.872575472E+00 -1.045034728E-01 6.969765749E+04 1.017484380E+02 7.282269519E-02
 -3.574811823E+00 -8.671521711E-02 6.969774061E+04 1.017468983E+02 1.004264405E-01
 -3.297513596E+00 -7.880798122E-02 6.969789433E+04 1.017448706E+02 1.299570462E-01
 -3.040515450E+00 -7.301664960E-02 6.969810965E+04 1.017422890E+02 1.614439414E-01
 -2.802683961E+00 -6.764656632E-02 6.969835359E+04 1.017394122E+02 1.949783846E-01
 -2.582631855E+00 -6.266743799E-02 6.969863105E+04 1.017361705E+02 2.307161388E-01
 -2.379070110E+00 -5.805110842E-02 6.969895105E+04 1.017324730E+02 2.688633739E-01
 -2.190801111E+00 -5.377140919E-02 6.969931681E+04 1.017282745E+02 3.096454097E-01
 -2.016712273E+00 -4.980402118E-02 6.969973353E+04 1.017235095E+02 3.533062455E-01
 -1.855770110E+00 -4.612634627E-02 6.970020855E+04 1.017180936E+02 4.001141995E-01
 -1.707014705E+00 -4.271738838E-02 6.970074976E+04 1.017119349E+02 4.503616478E-01
 -1.569554568E+00 -3.955764311E-02 6.970136605E+04 1.017049287E+02 5.043653505E-01
 -1.442561844E+00 -3.662899543E-02 6.970206775E+04 1.016969539E+02 5.624680287E-01
 -1.325267850E+00 -3.391462469E-02 6.970286679E+04 1.016878708E+02 6.250397065E-01
 -1.216958932E+00 -3.139891652E-02 6.970377682E+04 1.016775187E+02 6.924790458E-01
 -1.116972593E+00 -2.906738095E-02 6.970481361E+04 1.016657125E+02 7.652148945E-01
 -1.024693898E+00 -2.690657636E-02 6.970599529E+04 1.016522385E+02 8.437079325E-01
 -9.395521285E-01 -2.490403875E-02 6.970734277E+04 1.016368506E+02 9.284523687E-01
 -8.610176661E-01 -2.304821589E-02 6.970888012E+04 1.016192644E+02 1.019977713E+00
 -7.885990919E-01 -2.132840592E-02 6.971063507E+04 1.015991524E+02 1.118850601E+00
 -7.218404894E-01 -1.973470008E-02 6.971263955E+04 1.015761364E+02 1.225676696E+00
 -6.603189342E-01 -1.825792909E-02 6.971493032E+04 1.015497806E+02 1.341102621E+00
 -6.036421579E-01 -1.688961292E-02 6.971754965E+04 1.015195823E+02 1.465817951E+00
 -5.514463751E-01 -1.562191355E-02 6.972054622E+04 1.014849625E+02 1.600557218E+00
 -5.033942614E-01 -1.444759044E-02 6.972397593E+04 1.014452538E+02 1.746102109E+00
 -4.591730732E-01 -1.335995851E-02 6.972790307E+04 1.013996880E+02 1.903283958E+00
 -4.184928977E-01 -1.235284817E-02 6.973240141E+04 1.013473802E+02 2.072986087E+00
 -3.810850262E-01 -1.142056740E-02 6.973755568E+04 1.012873131E+02 2.256146732E+00
 -3.467004404E-01 -1.055786557E-02 6.974346295E+04 1.012183154E+02 2.453763700E+00
 -3.151084049E-01 -9.759898869E-03 6.975023464E+04 1.011390429E+02 2.666893312E+00
 -2.860951587E-01 -9.022197317E-03 6.975799852E+04 1.010479446E+02 2.896662883E+00
 -2.594626978E-01 -8.340633193E-03 6.976690049E+04 1.009432283E+02 3.144277447E+00
 -2.350276437E-01 -7.711390978E-03 6.977710719E+04 1.008228522E+02 3.411002562E+00
 -2.126201917E-01 -7.130938812E-03 6.978881058E+04 1.006844835E+02 3.698202027E+00
 -1.920831323E-01 -6.596001521E-03 6.980223085E+04 1.005254037E+02 4.007385346E+00
 -1.732709430E-01 -6.103535362E-03 6.981761830E+04 1.003424803E+02 4.340143375E+00
 -1.560489429E-01 -5.650704589E-03 6.983525915E+04 1.001321192E+02 4.698173913E+00
 -1.402925078E-01 -5.234859981E-03 6.985548270E+04 9.989015281E+01 5.083367496E+00
 -1.258863410E-01 -4.853519432E-03 6.987866667E+04 9.961175383E+01 5.497799523E+00
 -1.127237955E-01 -4.504350714E-03 6.990524450E+04 9.929131994E+01 5.943759224E+00
 -1.007062446E-01 -4.185156467E-03 6.993571539E+04 9.892230968E+01 6.423799140E+00
 -8.974249762E-02 -3.893861393E-03 6.997065680E+04 9.849705900E+01 6.940796161E+00
 -7.974825669E-02 -3.628501619E-03 7.001073717E+04 9.800651332E+01 7.498011376E+00
 -7.064561312E-02 -3.387216108E-03 7.005673695E+04 9.743998102E+01 8.099154106E+00
 -6.236257942E-02 -3.168239966E-03 7.010956623E+04 9.678451787E+01 8.748498110E+00
 -5.483265505E-02 -2.969899317E-03 7.017030679E+04 9.602482443E+01 9.450985717E+00
 -4.799442329E-02 -2.790607451E-03 7.024018485E+04 9.514152342E+01 1.021236941E+01
 -4.179117716E-02 -2.628862153E-03 7.032058280E+04 9.411541922E+01 1.104032179E+01
 -3.617473998E-02 -2.447052401E-03 7.041233152E+04 9.292531383E+01 1.195591718E+01
 -3.110959132E-02 -2.119036978E-03 7.051621622E+04 9.154758656E+01 1.298925012E+01
 -2.653218769E-02 -1.823536230E-03 7.063522322E+04 8.993837198E+01 1.415356578E+01
 -2.240160005E-02 -1.557777289E-03 7.077290878E+04 8.802064209E+01 1.546757486E+01
 -1.868009248E-02 -1.319189376E-03 7.093345483E+04 8.573030868E+01 1.696361511E+01
 -1.533288440E-02 -1.105393148E-03 7.111980921E+04 8.292253388E+01 1.870205819E+01
 -1.232792988E-02 -9.141901958E-04 7.134133937E+04 7.950785283E+01 2.073478449E+01
 -9.635712896E-03 -7.435526828E-04 7.159611945E+04 7.505121500E+01 2.322115989E+01
 -7.229057379E-03 -5.916130587E-04 7.191159844E+04 6.953965788E+01 2.627014309E+01
 -5.082950992E-03 -4.566537828E-04 7.223733281E+04 6.140114102E+01 3.038890998E+01
 -3.174381601E-03 -3.370965022E-04 7.265401819E+04 5.142608955E+01 3.554073044E+01
 -1.482185363E-03 -2.314893379E-04 7.279236901E+04 3.603230459E+01 4.626632696E+01
 1.309555987E-05 -1.384829409E-04 7.265717905E+04 2.538033685E+01 5.430512973E+01
 -4.919121367E+00 4.110405248E-02 6.969633464E+04 1.017566898E+02 1.729037478E-02
 -4.543668236E+00 4.525661499E-02 6.969634939E+04 1.017564714E+02 2.656091023E-02
 -4.195908749E+00 4.911434198E-02 6.969637442E+04 1.017561164E+02 4.793310146E-02
 -3.873854183E+00 5.269819553E-02 6.969639053E+04 1.017558156E+02 7.338676063E-02
 -3.575655833E+00 5.602768077E-02 6.969641991E+04 1.017554222E+02 1.010556961E-01
 -3.298247031E+00 5.246582310E-02 6.969650243E+04 1.017546333E+02 1.306702823E-01
 -3.041196080E+00 4.804185570E-02 6.969663281E+04 1.017533824E+02 1.622716290E-01
 -2.803315738E+00 4.395853196E-02 6.969678581E+04 1.017518700E+02 1.959413072E-01
 -2.583218441E+00 4.019100010E-02 6.969696506E+04 1.017500434E+02 2.318342414E-01
 -2.379614903E+00 3.671617641E-02 6.969717784E+04 1.017478305E+02 2.701600959E-01
 -2.191307259E+00 3.351262262E-02 6.969742707E+04 1.017451932E+02 3.111469595E-01
 -2.017182695E+00 3.056043104E-02 6.969771718E+04 1.017420764E+02 3.550415232E-01
 -1.856207512E+00 2.784111704E-02 6.969805456E+04 1.017384077E+02 4.021158771E-01
 -1.707421594E+00 2.533751826E-02 6.969844623E+04 1.017341060E+02 4.526671567E-01
 -1.569933269E+00 2.303370052E-02 6.969890022E+04 1.017290777E+02 5.070176460E-01
 -1.442914509E+00 2.091486972E-02 6.969942594E+04 1.017232125E+02 5.655164865E-01
 -1.325596476E+00 1.896728950E-02 6.970003437E+04 1.017163823E+02 6.285411576E-01
 -1.217265368E+00 1.717820443E-02 6.970073823E+04 1.017084378E+02 6.964988940E-01
 -1.117258550E+00 1.553576820E-02 6.970155229E+04 1.016992055E+02 7.698283667E-01
 -1.024960963E+00 1.402897677E-02 6.970249368E+04 1.016884835E+02 8.490015018E-01
 -9.398017720E-01 1.264760600E-02 6.970358227E+04 1.016760377E+02 9.345253659E-01
 -8.612512487E-01 1.138215369E-02 6.970484107E+04 1.016615957E+02 1.026944148E+00
 -7.888178741E-01 1.022378575E-02 6.970629675E+04 1.016448423E+02 1.126841219E+00
 -7.220456385E-01 9.164286236E-03 6.970798012E+04 1.016254113E+02 1.234841276E+00
 -6.605115309E-01 8.196011211E-03 6.970992685E+04 1.016028793E+02 1.351612534E+00
 -6.038232029E-01 7.311846167E-03 6.971217811E+04 1.015767556E+02 1.477869027E+00
 -5.516167946E-01 6.505166894E-03 6.971478145E+04 1.015464732E+02 1.614373004E+00
 -5.035549127E-01 5.769803669E-03 6.971779165E+04 1.015113765E+02 1.761937513E+00
 -4.593247494E-01 5.100008608E-03 6.972127187E+04 1.014707089E+02 1.921429080E+00
 -4.186363326E-01 4.490426075E-03 6.972529477E+04 1.014235971E+02 2.093770646E+00
 -3.812208983E-01 3.936065977E-03 6.972994388E+04 1.013690346E+02 2.279945477E+00
 -3.468293766E-01 3.432279818E-03 6.973531515E+04 1.013058621E+02 2.480999768E+00
 -3.152309847E-01 2.974739322E-03 6.974151872E+04 1.012327438E+02 2.698048506E+00
 -2.862119168E-01 2.559417442E-03 6.974868093E+04 1.011481433E+02 2.932281313E+00
 -2.595741276E-01 2.182571525E-03 6.975694659E+04 1.010502936E+02 3.184967944E+00
 -2.351342001E-01 1.840728395E-03 6.976648091E+04 1.009371452E+02 3.457471955E+00
 -2.127222935E-01 1.530671058E-03 6.977747277E+04 1.008063626E+02 3.751235043E+00
 -1.921811649E-01 1.249426767E-03 6.979013987E+04 1.006552827E+02 4.067822443E+00
 -1.733652606E-01 9.942561006E-04 6.980473147E+04 1.004807933E+02 4.408980038E+00
 -1.561398707E-01 7.626427689E-04 6.982153071E+04 1.002793046E+02 4.776556084E+00
 -1.403803439E-01 5.522838266E-04 6.984086175E+04 1.000466905E+02 5.172546120E+00
 -1.259713585E-01 3.610800265E-04 6.986309735E+04 9.977815989E+01 5.599190702E+00
 -1.128062443E-01 1.871260635E-04 6.988866526E+04 9.946815428E+01 6.058973433E+00
 -1.007863532E-01 2.870051952E-05 6.991805714E+04 9.911019096E+01 6.554665305E+00
 -8.982047475E-02 -1.157446173E-04 6.995184121E+04 9.869667890E+01 7.089391550E+00
 -7.982429297E-02 -2.475949214E-04 6.999067458E+04 9.821865274E+01 7.666706510E+00
 -7.071988257E-02 -3.680850107E-04 7.003532350E+04 9.766553309E+01 8.290676202E+00
 -6.243524091E-02 -4.783104491E-04 7.008667987E+04 9.702451378E+01 8.966007229E+00
 -5.490385366E-02 -5.792398899E-04 7.014580356E+04 9.628046380E+01 9.698179392E+00
 -4.806429157E-02 -6.717272486E-04 7.021389475E+04 9.541421758E+01 1.049361364E+01
 -4.185983628E-02 -7.565238797E-04 7.029231546E+04 9.440649685E+01 1.136060068E+01
 -3.624094742E-02 -8.022123000E-04 7.038191461E+04 9.323620892E+01 1.231998302E+01
 -3.116731421E-02 -6.963298522E-04 7.048347267E+04 9.187934411E+01 1.340094943E+01
 -2.658223931E-02 -6.015694436E-04 7.059993180E+04 9.029276365E+01 1.461751804E+01
 -2.244472567E-02 -5.169540960E-04 7.073467392E+04 8.840007549E+01 1.599144884E+01
 -1.871697480E-02 -4.415687864E-04 7.089188643E+04 8.613911800E+01 1.755587886E+01
 -1.536414849E-02 -3.745601838E-04 7.107414692E+04 8.336429750E+01 1.937575353E+01
 -1.235414775E-02 -3.151358187E-04 7.129109916E+04 7.999102714E+01 2.150392050E+01
 -9.657407668E-03 -2.625626958E-04 7.153948422E+04 7.558482461E+01 2.411074419E+01
 -7.246707153E-03 -2.161653537E-04 7.184786388E+04 7.013094294E+01 2.730825060E+01
 -5.096992400E-03 -1.753233187E-04 7.216312394E+04 6.209675207E+01 3.161969639E+01
 -3.185213095E-03 -1.394675221E-04 7.257036096E+04 5.215245629E+01 3.698614861E+01
 -1.490170217E-03 -1.080740384E-04 7.268710835E+04 3.694593847E+01 4.799503576E+01
 7.626351982E-06 -8.064715534E-05 7.253220062E+04 2.652266222E+01 5.621704292E+01
 -4.913313371E+00 2.489252871E-01 6.969522377E+04 1.017611027E+02 1.737989974E-02
 -4.537972922E+00 2.348776957E-01 6.969520059E+04 1.017615014E+02 2.666715459E-02
 -4.190317842E+00 2.218777036E-01 6.969515709E+04 1.017623644E+02 4.808581591E-02
 -3.868359998E+00 2.098498909E-01 6.969511899E+04 1.017632316E+02 7.361159333E-02
 -3.570251230E+00 1.987241818E-01 6.969509436E+04 1.017639889E+02 1.013707220E-01
 -3.293217143E+00 1.836958608E-01 6.969510528E+04 1.017644453E+02 1.310897565E-01
 -3.036562619E+00 1.690597660E-01 6.969515004E+04 1.017645342E+02 1.628085416E-01
 -2.799049146E+00 1.555259756E-01 6.969521139E+04 1.017643957E+02 1.966046872E-01
 -2.579291303E+00 1.430145090E-01 6.969529170E+04 1.017639942E+02 2.326362052E-01
 -2.376001787E+00 1.314510577E-01 6.969539640E+04 1.017632769E+02 2.711170944E-01
 -2.187984580E+00 1.207665910E-01 6.969552807E+04 1.017622129E+02 3.122793177E-01
 -2.014128584E+00 1.108969879E-01 6.969569044E+04 1.017607577E+02 3.563737920E-01
 -1.853401692E+00 1.017826936E-01 6.969588886E+04 1.017588511E+02 4.036773057E-01
 -1.704845271E+00 9.336839908E-02 6.969612947E+04 1.017564230E+02 4.544921769E-01
 -1.567569019E+00 8.560274284E-02 6.969641940E+04 1.017533910E+02 5.091464776E-01
 -1.440746188E+00 7.843803203E-02 6.969676713E+04 1.017496566E+02 5.679958998E-01
 -1.323609126E+00 7.182998315E-02 6.969718267E+04 1.017451030E+02 6.314254041E-01
 -1.215445128E+00 6.573748013E-02 6.969767773E+04 1.017395930E+02 6.998507887E-01
 -1.115592586E+00 6.012234901E-02 6.969826607E+04 1.017329652E+02 7.737205240E-01
 -1.023437387E+00 5.494914812E-02 6.969896375E+04 1.017250301E+02 8.535177475E-01
 -9.384095760E-01 5.018497271E-02 6.969978955E+04 1.017155660E+02 9.397623397E-01
 -8.599802438E-01 4.579927313E-02 6.970076537E+04 1.017043134E+02 1.033013111E+00
 -7.876586291E-01 4.176368578E-02 6.970191673E+04 1.016909698E+02 1.133870086E+00
 -7.209894261E-01 3.805187600E-02 6.970327329E+04 1.016751822E+02 1.242976892E+00
 -6.595502766E-01 3.463939209E-02 6.970486952E+04 1.016565399E+02 1.361023235E+00
 -6.029494377E-01 3.150352997E-02 6.970674541E+04 1.016345654E+02 1.488747494E+00
 -5.508236111E-01 2.862320767E-02 6.970894728E+04 1.016087046E+02 1.626939424E+00
 -5.028359242E-01 2.597884923E-02 6.971152871E+04 1.015783148E+02 1.776443044E+00
 -4.586740521E-01 2.355227732E-02 6.971455161E+04 1.015426519E+02 1.938159751E+00
 -4.180484699E-01 2.132661415E-02 6.971808739E+04 1.015008554E+02 2.113051761E+00
 -3.806908282E-01 1.928619013E-02 6.972221830E+04 1.014519311E+02 2.302145838E+00
 -3.463524415E-01 1.741645984E-02 6.972703899E+04 1.013947318E+02 2.506537804E+00
 -3.148028825E-01 1.570392474E-02 6.973265821E+04 1.013279350E+02 2.727397348E+00
 -2.858286748E-01 1.413606218E-02 6.973920079E+04 1.012500162E+02 2.965975017E+00
 -2.592320782E-01 1.270126030E-02 6.974680983E+04 1.011592232E+02 3.223610093E+00