TITLE     = "fluent22.1.0  build-id: 10213"
VARIABLES = "X"
"Y"
"Pressure"
"X Velocity"
"Y Velocity"
DATASETAUXDATA Common.DensityVar="23"
DATASETAUXDATA Common.PressureVar="3"
DATASETAUXDATA Common.TemperatureVar="12"
DATASETAUXDATA Common.TurbulentDynamicViscosityVar="17"
DATASETAUXDATA Common.UVar="5"
DATASETAUXDATA Common.VectorVarsAreVelocity="TRUE"
DATASETAUXDATA Common.ViscosityVar="25"
DATASETAUXDATA Common.VVar="7"
ZONE T="fluid"
 STRANDID=1, SOLUTIONTIME=1.245
 Nodes=10240, Elements=10080, ZONETYPE=FEQuadrilateral
 DATAPACKING=POINT
 DT=(DOUBLE DOUBLE DOUBLE DOUBLE DOUBLE )
 -4.856290020E+00 -7.872354469E-01 6.970087410E+04 1.017389114E+02 1.429076975E-02
 -4.486986562E+00 -7.105215195E-01 6.970104536E+04 1.017361757E+02 2.355996359E-02
 -4.884823481E+00 -5.813004056E-01 6.969976961E+04 1.017431868E+02 1.548388343E-02
 -4.512999882E+00 -5.226403292E-01 6.969989995E+04 1.017410893E+02 2.479831242E-02
 -4.144922815E+00 -6.394536896E-01 6.970134785E+04 1.017308852E+02 4.500695273E-02
 -4.168601955E+00 -4.682949031E-01 6.970013118E+04 1.017370367E+02 4.631604645E-02
 -3.828142691E+00 -5.736269034E-01 6.970158263E+04 1.017258411E+02 7.062839869E-02
 -3.849660242E+00 -4.179545957E-01 6.970030988E+04 1.017331773E+02 7.198932793E-02
 -3.534827800E+00 -5.126644690E-01 6.970183593E+04 1.017207261E+02 9.844838850E-02
 -3.554343940E+00 -3.713316138E-01 6.970050491E+04 1.017292532E+02 9.988393888E-02
 -3.260771483E+00 -4.705407520E-01 6.970221014E+04 1.017148741E+02 1.280548563E-01
 -3.278727166E+00 -3.405645406E-01 6.970080625E+04 1.017246646E+02 1.296311348E-01
 -3.006626070E+00 -4.342754018E-01 6.970268389E+04 1.017082240E+02 1.594763512E-01
 -3.023186522E+00 -3.144125854E-01 6.970119632E+04 1.017193475E+02 1.612544287E-01
 -2.771434417E+00 -4.007037713E-01 6.970320560E+04 1.017011641E+02 1.928998175E-01
 -2.786703715E+00 -2.902000748E-01 6.970162784E+04 1.017136623E+02 1.949075617E-01
 -2.553824668E+00 -3.696310971E-01 6.970378434E+04 1.016935754E+02 2.284926384E-01
 -2.567899351E+00 -2.677868377E-01 6.970210868E+04 1.017075025E+02 2.307553454E-01
 -2.352522122E+00 -3.408763998E-01 6.970443254E+04 1.016853262E+02 2.664477782E-01
 -2.365491732E+00 -2.470426209E-01 6.970265059E+04 1.017007447E+02 2.689957798E-01
 -2.166342470E+00 -3.142715224E-01 6.970515482E+04 1.016763452E+02 3.069843607E-01
 -2.178290043E+00 -2.278463975E-01 6.970325756E+04 1.016933268E+02 3.098513603E-01
 -1.994185491E+00 -2.896602359E-01 6.970595909E+04 1.016665311E+02 3.503411858E-01
 -2.005188021E+00 -2.100857236E-01 6.970393650E+04 1.016851592E+02 3.535642721E-01
 -1.835029177E+00 -2.668974089E-01 6.970685537E+04 1.016557657E+02 3.967782672E-01
 -1.845158048E+00 -1.936561400E-01 6.970469668E+04 1.016761335E+02 4.003984352E-01
 -1.687924278E+00 -2.458482328E-01 6.970785404E+04 1.016439243E+02 4.465775230E-01
 -1.697245658E+00 -1.784606160E-01 6.970554771E+04 1.016661352E+02 4.506405061E-01
 -1.551989205E+00 -2.263875021E-01 6.970896660E+04 1.016308686E+02 5.000439304E-01
 -1.560564423E+00 -1.644090318E-01 6.970650027E+04 1.016550369E+02 5.046007895E-01
 -1.426405297E+00 -2.083989441E-01 6.971020607E+04 1.016164437E+02 5.575061735E-01
 -1.434291187E+00 -1.514176962E-01 6.970756656E+04 1.016426942E+02 5.626142294E-01
 -1.310412411E+00 -1.917745957E-01 6.971158708E+04 1.016004758E+02 6.193175964E-01
 -1.317661635E+00 -1.394088993E-01 6.970876036E+04 1.016289443E+02 6.250414541E-01
 -1.203304817E+00 -1.764142229E-01 6.971312607E+04 1.015827705E+02 6.858573561E-01
 -1.209966160E+00 -1.283104954E-01 6.971009728E+04 1.016136032E+02 6.922699904E-01
 -1.104427375E+00 -1.622247815E-01 6.971484163E+04 1.015631080E+02 7.575315837E-01
 -1.110546027E+00 -1.180555153E-01 6.971159503E+04 1.015964620E+02 7.647155572E-01
 -1.013171981E+00 -1.491199146E-01 6.971675478E+04 1.015412404E+02 8.347745759E-01
 -1.018789793E+00 -1.085818054E-01 6.971327378E+04 1.015772833E+02 8.428233967E-01
 -9.289742526E-01 -1.370194855E-01 6.971888933E+04 1.015168869E+02 9.180500305E-01
 -9.341299771E-01 -9.983169238E-02 6.971515647E+04 1.015557964E+02 9.270696365E-01
 -8.513104521E-01 -1.258491421E-01 6.972127230E+04 1.014897287E+02 1.007852270E+00
 -8.560399677E-01 -9.175167016E-02 6.971726922E+04 1.015316931E+02 1.017962700E+00
 -7.796946175E-01 -1.155399129E-01 6.972393437E+04 1.014594037E+02 1.104707378E+00
 -7.840311347E-01 -8.429210956E-02 6.971964186E+04 1.015046213E+02 1.116044731E+00
 -7.136758949E-01 -1.060278294E-01 6.972691042E+04 1.014254999E+02 1.209174445E+00
 -7.176501496E-01 -7.740698728E-02 6.972230838E+04 1.014741788E+02 1.221893114E+00
 -6.528360563E-01 -9.725357568E-02 6.973024013E+04 1.013875479E+02 1.321846679E+00
 -6.564764887E-01 -7.105363367E-02 6.972530761E+04 1.014399056E+02 1.336121844E+00
 -5.967871893E-01 -8.916216101E-02 6.973396865E+04 1.013450128E+02 1.443352669E+00
 -6.001201103E-01 -6.519249762E-02 6.972868390E+04 1.014012756E+02 1.459382884E+00
 -5.451695489E-01 -8.170261557E-02 6.973814744E+04 1.012972834E+02 1.574357640E+00
 -5.482192944E-01 -5.978692736E-02 6.973248789E+04 1.013576865E+02 1.592367317E+00
 -4.976495576E-01 -7.482770639E-02 6.974283522E+04 1.012436621E+02 1.715564179E+00
 -5.004386326E-01 -5.480296598E-02 6.973677750E+04 1.013084487E+02 1.735807558E+00
 -4.539179463E-01 -6.849367241E-02 6.974809887E+04 1.011833530E+02 1.867712437E+00
 -4.564671575E-01 -5.020916046E-02 6.974161888E+04 1.012527721E+02 1.890478972E+00
 -4.136880238E-01 -6.265997734E-02 6.975401481E+04 1.011154428E+02 2.031585618E+00
 -4.160166039E-01 -4.597638322E-02 6.974708773E+04 1.011897516E+02 2.057199801E+00
 -3.766940682E-01 -5.728907888E-02 6.976067018E+04 1.010388828E+02 2.208006838E+00
 -3.788197904E-01 -4.207766535E-02 6.975327065E+04 1.011183512E+02 2.236835838E+00
 -3.426898300E-01 -5.234621300E-02 6.976816421E+04 1.009524767E+02 2.397836926E+00
 -3.446291150E-01 -3.848804048E-02 6.976026629E+04 1.010373740E+02 2.430302310E+00
 -3.114471406E-01 -4.779919246E-02 6.977661100E+04 1.008548615E+02 2.601985406E+00
 -3.132151552E-01 -3.518439864E-02 6.976818772E+04 1.009454537E+02 2.638561021E+00
 -2.827546176E-01 -4.361821836E-02 6.978614117E+04 1.007444676E+02 2.821415622E+00
 -2.843653671E-01 -3.214534940E-02 6.977716454E+04 1.008410280E+02 2.862627404E+00
 -2.564164614E-01 -3.977570394E-02 6.979690343E+04 1.006194862E+02 3.057150311E+00
 -2.578828744E-01 -2.935109362E-02 6.978734487E+04 1.007223048E+02 3.103579759E+00
 -2.322513363E-01 -3.624610994E-02 6.980906778E+04 1.004778458E+02 3.310257015E+00
 -2.335853442E-01 -2.678330354E-02 6.979889850E+04 1.005872140E+02 3.362581085E+00
 -2.100913294E-01 -3.300579077E-02 6.982282888E+04 1.003171665E+02 3.581857371E+00
 -2.113039400E-01 -2.442501042E-02 6.981201921E+04 1.004333722E+02 3.640851255E+00
 -1.897809841E-01 -3.003285097E-02 6.983841005E+04 1.001347044E+02 3.873157345E+00
 -1.908823496E-01 -2.226049979E-02 6.982692845E+04 1.002580499E+02 3.939671886E+00
 -1.711764006E-01 -2.730701155E-02 6.985606724E+04 9.992729620E+01 4.185446210E+00
 -1.721758811E-01 -2.027521370E-02 6.984388051E+04 1.000580926E+02 4.260439226E+00
 -1.541444002E-01 -2.480948575E-02 6.987609378E+04 9.969129129E+01 4.520103145E+00
 -1.550506224E-01 -1.845565994E-02 6.986316713E+04 9.982985762E+01 4.604659746E+00
 -1.385617490E-01 -2.252286380E-02 6.989882646E+04 9.942246566E+01 4.878617513E+00
 -1.393826612E-01 -1.678932799E-02 6.988512273E+04 9.956913479E+01 4.973960072E+00
 -1.243144362E-01 -2.043100656E-02 6.992465242E+04 9.911591873E+01 5.262609300E+00
 -1.250573588E-01 -1.526461145E-02 6.991013140E+04 9.927104166E+01 5.370115691E+00
 -1.112970039E-01 -1.851894741E-02 6.995401761E+04 9.876594988E+01 5.673850848E+00
 -1.119686767E-01 -1.387073684E-02 6.993863536E+04 9.892990018E+01 5.795077687E+00
 -9.941192462E-02 -1.677280233E-02 6.998743681E+04 9.836589563E+01 6.114292445E+00
 -1.000185504E-01 -1.259769849E-02 6.997114472E+04 9.853907709E+01 6.251003591E+00
 -8.856902282E-02 -1.517968761E-02 7.002550666E+04 9.790794286E+01 6.586107230E+00
 -8.911630822E-02 -1.143619939E-02 7.000824992E+04 9.809080176E+01 6.740291987E+00
 -7.868493836E-02 -1.372764488E-02 7.006892030E+04 9.738284100E+01 7.091710663E+00
 -7.917813166E-02 -1.037759748E-02 7.005063578E+04 9.757588922E+01 7.265625438E+00
 -6.968262794E-02 -1.240557272E-02 7.011848916E+04 9.677965180E+01 7.633763381E+00
 -7.012655400E-02 -9.413857224E-03 7.009910343E+04 9.698347443E+01 7.830032198E+00
 -6.149090254E-02 -1.120316500E-02 7.017515791E+04 9.608518006E+01 8.215206131E+00
 -6.188999531E-02 -8.537506126E-03 7.015458924E+04 9.630039901E+01 8.436925030E+00
 -5.404399801E-02 -1.011085488E-02 7.024004907E+04 9.528382682E+01 8.839462615E+00
 -5.440233065E-02 -7.741595541E-03 7.021820630E+04 9.551110026E+01 9.090194680E+00
 -4.728117655E-02 -9.119763009E-03 7.031444013E+04 9.435579129E+01 9.510336409E+00
 -4.760248933E-02 -7.019665007E-03 7.029121853E+04 9.459585642E+01 9.794186061E+00
 -4.114635691E-02 -8.221651491E-03 7.039976400E+04 9.328171730E+01 1.023415718E+01
 -4.143408302E-02 -6.365710442E-03 7.037503521E+04 9.353550418E+01 1.055560472E+01
 -3.559598482E-02 -7.360402054E-03 7.049686737E+04 9.203975342E+01 1.103412756E+01
 -3.585192859E-02 -5.729763205E-03 7.047046416E+04 9.230846667E+01 1.139809714E+01
 -3.060943809E-02 -6.368721091E-03 7.060656554E+04 9.060671277E+01 1.194181327E+01
 -3.083034843E-02 -4.958259103E-03 7.057829421E+04 9.089169256E+01 1.235275454E+01
 -2.610309106E-02 -5.473521524E-03 7.073200111E+04 8.893656284E+01 1.296701500E+01
 -2.629233557E-02 -4.262021916E-03 7.070161638E+04 8.923991272E+01 1.342899256E+01
 -2.203664599E-02 -4.666654990E-03 7.087706518E+04 8.695093283E+01 1.411969676E+01
 -2.219731029E-02 -3.634686291E-03 7.084425813E+04 8.727470237E+01 1.463941594E+01
 -1.837294869E-02 -3.940594534E-03 7.104596658E+04 8.458082695E+01 1.543125228E+01
 -1.850785846E-02 -3.070368915E-03 7.101041225E+04 8.492843434E+01 1.601526628E+01
 -1.507775450E-02 -3.288393029E-03 7.124238793E+04 8.168622204E+01 1.694762474E+01
 -1.518949589E-02 -2.563637328E-03 7.120356317E+04 8.205845531E+01 1.760832390E+01
 -1.211951121E-02 -2.703643920E-03 7.147503999E+04 7.816580735E+01 1.872467631E+01
 -1.221044968E-02 -2.109480242E-03 7.143258842E+04 7.856789558E+01 1.947338461E+01
 -9.469157563E-03 -2.180444112E-03 7.174521759E+04 7.359070118E+01 2.088082289E+01
 -9.541455253E-03 -1.703279339E-03 7.169770676E+04 7.402493577E+01 2.174820828E+01
 -7.099936324E-03 -1.713358760E-03 7.207704453E+04 6.793823442E+01 2.352002457E+01
 -7.155568146E-03 -1.340782369E-03 7.202404815E+04 6.841421925E+01 2.454153011E+01
 -4.987220815E-03 -1.297387836E-03 7.242832451E+04 5.951942397E+01 2.710685349E+01
 -5.027989285E-03 -1.018077428E-03 7.236617675E+04 6.008003522E+01 2.832900478E+01
 -3.108353908E-03 -9.279336997E-04 7.286577224E+04 4.950616936E+01 3.169807116E+01
 -3.135902867E-03 -7.315677035E-04 7.279634850E+04 5.006715474E+01 3.312519625E+01
 -1.442498446E-03 -6.007685438E-04 7.304926817E+04 3.354125863E+01 4.181867496E+01
 -1.458325736E-03 -4.779455000E-04 7.296117335E+04 3.427090855E+01 4.348688543E+01
 2.950318352E-05 -3.119902977E-04 7.295762641E+04 2.216199907E+01 4.949104391E+01
 2.403397564E-05 -2.541545121E-04 7.285122259E+04 2.311641452E+01 5.131603473E+01
 -4.904860300E+00 -3.743658139E-01 6.969865006E+04 1.017475635E+02 1.648570176E-02
 -4.531167966E+00 -3.338366249E-01 6.969874227E+04 1.017460863E+02 2.583628289E-02
 -4.185039206E+00 -2.962849057E-01 6.969890638E+04 1.017432527E+02 4.740572571E-02
 -3.864494650E+00 -2.614970929E-01 6.969903249E+04 1.017405735E+02 7.310601153E-02
 -3.567694287E+00 -2.292746478E-01 6.969917301E+04 1.017378298E+02 1.010369298E-01
 -3.290995776E+00 -2.099214204E-01 6.969940263E+04 1.017345037E+02 1.308819956E-01
 -3.034503188E+00 -1.939350885E-01 6.969970812E+04 1.017305280E+02 1.626703993E-01
 -2.797139451E+00 -1.791300252E-01 6.970004888E+04 1.017262166E+02 1.965177859E-01
 -2.577520029E+00 -1.654209347E-01 6.970043137E+04 1.017214800E+02 2.325836693E-01
 -2.374358446E+00 -1.527285529E-01 6.970086620E+04 1.017162095E+02 2.710717004E-01
 -2.186459450E+00 -1.409792271E-01 6.970135693E+04 1.017103516E+02 3.122066926E-01
 -2.012712654E+00 -1.301045243E-01 6.970190964E+04 1.017038288E+02 3.562328175E-01
 -1.852086612E+00 -1.200408682E-01 6.970253268E+04 1.016965444E+02 4.034179392E-01
 -1.703623301E+00 -1.107292011E-01 6.970323487E+04 1.016883945E+02 4.540536515E-01
 -1.566432989E+00 -1.021146695E-01 6.970402603E+04 1.016792630E+02 5.084558030E-01
 -1.439689455E+00 -9.414633196E-02 6.970491750E+04 1.016690162E+02 5.669657821E-01
 -1.322625534E+00 -8.677688778E-02 6.970592219E+04 1.016575023E+02 6.299516884E-01
 -1.214528978E+00 -7.996242394E-02 6.970705481E+04 1.016445479E+02 6.978096053E-01
 -1.114738596E+00 -7.366218041E-02 6.970833216E+04 1.016299552E+02 7.709650353E-01
 -1.022640669E+00 -6.783833151E-02 6.970977347E+04 1.016134977E+02 8.498744026E-01
 -9.376656014E-01 -6.245578260E-02 6.971140074E+04 1.015949156E+02 9.350266107E-01
 -8.592848204E-01 -5.748198081E-02 6.971323915E+04 1.015739117E+02 1.026944662E+00
 -7.870078763E-01 -5.288673880E-02 6.971531755E+04 1.015501447E+02 1.126187303E+00
 -7.203797521E-01 -4.864207062E-02 6.971766898E+04 1.015232231E+02 1.233350706E+00
 -6.589783577E-01 -4.472203866E-02 6.972033131E+04 1.014926975E+02 1.349070137E+00
 -6.024121991E-01 -4.110261088E-02 6.972334793E+04 1.014580522E+02 1.474021722E+00
 -5.503182089E-01 -3.776152749E-02 6.972676854E+04 1.014186949E+02 1.608924251E+00
 -5.023597293E-01 -3.467817632E-02 6.973065013E+04 1.013739455E+02 1.754541216E+00
 -4.582246346E-01 -3.183347623E-02 6.973505794E+04 1.013230232E+02 1.911682133E+00
 -4.176235854E-01 -2.920976779E-02 6.974006676E+04 1.012650314E+02 2.081205611E+00
 -3.802884048E-01 -2.679071080E-02 6.974576219E+04 1.011989403E+02 2.264022508E+00
 -3.459705676E-01 -2.456118806E-02 6.975224222E+04 1.011235711E+02 2.461095179E+00
 -3.144397960E-01 -2.250721484E-02 6.975961907E+04 1.010375613E+02 2.673446756E+00
 -2.854827531E-01 -2.061585386E-02 6.976802121E+04 1.009393448E+02 2.902162684E+00
 -2.589018281E-01 -1.887513527E-02 6.977759516E+04 1.008271336E+02 3.148383661E+00
 -2.345140073E-01 -1.727398152E-02 6.978850926E+04 1.006988844E+02 3.413329759E+00
 -2.121498237E-01 -1.580213683E-02 6.980095694E+04 1.005522251E+02 3.698337927E+00
 -1.916523809E-01 -1.445010114E-02 6.981515825E+04 1.003844214E+02 4.004813945E+00
 -1.728764461E-01 -1.320906860E-02 6.983136457E+04 1.001923422E+02 4.334244357E+00
 -1.556876067E-01 -1.207087027E-02 6.984986495E+04 9.997236151E+01 4.688268542E+00
 -1.399614867E-01 -1.102792136E-02 6.987099107E+04 9.972028596E+01 5.068673010E+00
 -1.255830188E-01 -1.007317261E-02 6.989512319E+04 9.943125829E+01 5.477409075E+00
 -1.124457677E-01 -9.200066010E-03 6.992269867E+04 9.909963176E+01 5.916631585E+00
 -1.004513025E-01 -8.402494742E-03 6.995422171E+04 9.871881255E+01 6.388738389E+00
 -8.950861252E-02 -7.674767123E-03 6.999027512E+04 9.828108052E+01 6.896415130E+00
 -7.953356621E-02 -7.011574456E-03 7.003153435E+04 9.777730862E+01 7.442689185E+00
 -7.044840779E-02 -6.407962513E-03 7.007878954E+04 9.719670517E+01 8.030992549E+00
 -6.218129051E-02 -5.859306466E-03 7.013296313E+04 9.652620225E+01 8.665252727E+00
 -5.466584320E-02 -5.361288732E-03 7.019515136E+04 9.575034597E+01 9.350014237E+00
 -4.784076808E-02 -4.909879310E-03 7.026659689E+04 9.484959389E+01 1.009049895E+01
 -4.164946739E-02 -4.501318554E-03 7.034869270E+04 9.380472282E+01 1.089401790E+01
 -3.604521609E-02 -4.091805716E-03 7.044226070E+04 9.259419121E+01 1.178223480E+01
 -3.099736988E-02 -3.541492651E-03 7.054806210E+04 9.119495601E+01 1.278592898E+01
 -2.643561501E-02 -3.045137735E-03 7.066909690E+04 8.956273375E+01 1.391745170E+01
 -2.231916045E-02 -2.598165788E-03 7.080906270E+04 8.761954999E+01 1.519254057E+01
 -1.861039729E-02 -2.196343900E-03 7.097213536E+04 8.529949953E+01 1.664285752E+01
 -1.527466190E-02 -1.835760556E-03 7.116151901E+04 8.245802282E+01 1.832455324E+01
 -1.228001604E-02 -1.512805596E-03 7.138632963E+04 7.900235120E+01 2.028974412E+01
 -9.597042841E-03 -1.224150962E-03 7.164558701E+04 7.449769364E+01 2.268881722E+01
 -7.198657563E-03 -9.667321175E-04 7.196562078E+04 6.893390506E+01 2.563309184E+01
 -5.059931982E-03 -7.377300654E-04 7.229779882E+04 6.069660521E+01 2.961881925E+01
 -3.157931417E-03 -5.345532816E-04 7.271956068E+04 5.069250432E+01 3.462911629E+01
 -1.471563314E-03 -3.548183449E-04 7.286425481E+04 3.506534857E+01 4.524670723E+01
 1.856476775E-05 -1.963187265E-04 7.273515185E+04 2.413826617E+01 5.323840925E+01
 -4.916318661E+00 -1.667794339E-01 6.969752894E+04 1.017519936E+02 1.713852377E-02
 -4.541415266E+00 -1.444315223E-01 6.969758297E+04 1.017511409E+02 2.651475566E-02
 -4.194164829E+00 -1.237201329E-01 6.969767873E+04 1.017495368E+02 4.813782126E-02
 -3.872581553E+00 -1.045279559E-01 6.969775070E+04 1.017480380E+02 7.390173354E-02
 -3.574819456E+00 -8.674595439E-02 6.969783636E+04 1.017464588E+02 1.019145420E-01
 -3.297522585E+00 -7.884418104E-02 6.969799395E+04 1.017443818E+02 1.318816721E-01
 -3.040525608E+00 -7.305755495E-02 6.969821422E+04 1.017417408E+02 1.638331862E-01
 -2.802695112E+00 -6.769147434E-02 6.969846368E+04 1.017387986E+02 1.978620750E-01
 -2.582643840E+00 -6.271570327E-02 6.969874732E+04 1.017354840E+02 2.341266561E-01
 -2.379082781E+00 -5.810213865E-02 6.969907430E+04 1.017317048E+02 2.728363533E-01
 -2.190814333E+00 -5.382466106E-02 6.969944788E+04 1.017274153E+02 3.142199882E-01
 -2.016725922E+00 -4.985899661E-02 6.969987330E+04 1.017225491E+02 3.585252941E-01
 -1.855784073E+00 -4.618258890E-02 6.970035800E+04 1.017170207E+02 4.060246419E-01
 -1.707028878E+00 -4.277448033E-02 6.970090995E+04 1.017107370E+02 4.570147805E-01
 -1.569568856E+00 -3.961520209E-02 6.970153813E+04 1.017035926E+02 5.118171748E-01
 -1.442576160E+00 -3.668667204E-02 6.970225296E+04 1.016954647E+02 5.707796137E-01
 -1.325282115E+00 -3.397210008E-02 6.970306646E+04 1.016862124E+02 6.342775807E-01
 -1.216973074E+00 -3.145590021E-02 6.970399241E+04 1.016756737E+02 7.027156142E-01
 -1.116986546E+00 -2.912360897E-02 6.970504664E+04 1.016636619E+02 7.765288852E-01
 -1.024707603E+00 -2.696180959E-02 6.970624742E+04 1.016499618E+02 8.561848714E-01
 -9.395655317E-01 -2.495806148E-02 6.970761575E+04 1.016343256E+02 9.421850855E-01
 -8.610307196E-01 -2.310083459E-02 6.970917579E+04 1.016164672E+02 1.035066879E+00
 -7.886117528E-01 -2.137944821E-02 6.971095537E+04 1.015960572E+02 1.135405309E+00
 -7.218527201E-01 -1.978401382E-02 6.971298650E+04 1.015727156E+02 1.243815071E+00
 -6.603307018E-01 -1.830538170E-02 6.971530600E+04 1.015460048E+02 1.360952471E+00
 -6.036534343E-01 -1.693509072E-02 6.971795622E+04 1.015154203E+02 1.487517449E+00
 -5.514571367E-01 -1.566532128E-02 6.972098584E+04 1.014803811E+02 1.624255632E+00
 -5.034044892E-01 -1.448885088E-02 6.972445080E+04 1.014402181E+02 1.771960597E+00
 -4.591827525E-01 -1.339901203E-02 6.972841532E+04 1.013941612E+02 1.931476364E+00
 -4.185020181E-01 -1.238965241E-02 6.973295314E+04 1.013413242E+02 2.103699971E+00
 -3.810935815E-01 -1.145509689E-02 6.973814883E+04 1.012806880E+02 2.289584200E+00
 -3.467084285E-01 -1.059011132E-02 6.974409931E+04 1.012110805E+02 2.490141946E+00
 -3.151158278E-01 -9.789867927E-03 6.975091575E+04 1.011311551E+02 2.706447345E+00
 -2.861020220E-01 -9.049912167E-03 6.975872562E+04 1.010393625E+02 2.939645444E+00
 -2.594690109E-01 -8.366131100E-03 6.976767431E+04 1.009339098E+02 3.190960632E+00
 -2.350334196E-01 -7.734723173E-03 6.977792787E+04 1.008127513E+02 3.461678859E+00
 -2.126254463E-01 -7.152169542E-03 6.978967766E+04 1.006735567E+02 3.753185366E+00
 -1.920878848E-01 -6.615206946E-03 6.980314317E+04 1.005136089E+02 4.067015731E+00
 -1.732752150E-01 -6.120802305E-03 6.981857374E+04 1.003297756E+02 4.404787877E+00
 -1.560527584E-01 -5.666129155E-03 6.983625447E+04 1.001184629E+02 4.768228694E+00
 -1.402958926E-01 -5.248546051E-03 6.985651339E+04 9.987550429E+01 5.159260611E+00
 -1.258893226E-01 -4.865577069E-03 6.987972677E+04 9.959607268E+01 5.579996310E+00
 -1.127264023E-01 -4.514894511E-03 6.990632657E+04 9.927456342E+01 6.032765499E+00
 -1.007085059E-01 -4.194303863E-03 6.993681032E+04 9.890443181E+01 6.520167126E+00
 -8.974444281E-02 -3.901731017E-03 6.997175319E+04 9.847801286E+01 7.045132675E+00
 -7.974991511E-02 -3.635211685E-03 7.001182094E+04 9.798624948E+01 7.610984528E+00
 -7.064701359E-02 -3.392882907E-03 7.005779125E+04 9.741844366E+01 8.221504614E+00
 -6.236374995E-02 -3.172976494E-03 7.011057100E+04 9.676163734E+01 8.881052688E+00
 -5.483362251E-02 -2.973814061E-03 7.017123829E+04 9.600051960E+01 9.594676570E+00
 -4.799521315E-02 -2.793803364E-03 7.024101371E+04 9.511568812E+01 1.036825497E+01
 -4.179181332E-02 -2.631435819E-03 7.032127238E+04 9.408796729E+01 1.120961592E+01
 -3.617524447E-02 -2.449093307E-03 7.041282456E+04 9.289622411E+01 1.214002020E+01
 -3.110998403E-02 -2.120626861E-03 7.051642215E+04 9.151698947E+01 1.318984988E+01
 -2.653248726E-02 -1.824749912E-03 7.063504287E+04 8.990641821E+01 1.437264967E+01
 -2.240182314E-02 -1.558681828E-03 7.077222498E+04 8.798710261E+01 1.570759711E+01
 -1.868025385E-02 -1.319844186E-03 7.093212807E+04 8.569522171E+01 1.722750253E+01
 -1.533299696E-02 -1.105850252E-03 7.111760304E+04 8.288519840E+01 1.899373979E+01
 -1.232800478E-02 -9.144945974E-04 7.133800345E+04 7.946868590E+01 2.105916154E+01
 -9.635759641E-03 -7.437428151E-04 7.159103845E+04 7.500891240E+01 2.358552138E+01
 -7.229083966E-03 -5.917212880E-04 7.190421682E+04 6.949656179E+01 2.668537755E+01
 -5.082964038E-03 -4.567069351E-04 7.222601037E+04 6.135929053E+01 3.087196373E+01
 -3.174386473E-03 -3.371163689E-04 7.263873916E+04 5.137478327E+01 3.609979590E+01
 -1.482186278E-03 -2.314930713E-04 7.276216035E+04 3.592609984E+01 4.698824145E+01
 1.309555987E-05 -1.384829409E-04 7.261321797E+04 2.522780582E+01 5.515321768E+01
 -4.919121367E+00 4.110405248E-02 6.969640437E+04 1.017564561E+02 1.754997075E-02
 -4.543670505E+00 4.524745763E-02 6.969642022E+04 1.017562248E+02 2.695884651E-02
 -4.195913025E+00 4.909708199E-02 6.969644722E+04 1.017558465E+02 4.864958608E-02
 -3.873860224E+00 5.267380476E-02 6.969646488E+04 1.017555254E+02 7.448186274E-02
 -3.575663418E+00 5.599705471E-02 6.969649604E+04 1.017551094E+02 1.025614253E-01
 -3.298255963E+00 5.242975300E-02 6.969658141E+04 1.017542895E+02 1.326144870E-01
 -3.041206173E+00 4.800109718E-02 6.969671552E+04 1.017529989E+02 1.646829562E-01
 -2.803326817E+00 4.391378620E-02 6.969687274E+04 1.017514411E+02 1.988499245E-01
 -2.583230347E+00 4.014291099E-02 6.969705676E+04 1.017495625E+02 2.352728344E-01
 -2.379627489E+00 3.666533491E-02 6.969727498E+04 1.017472899E+02 2.741646400E-01
 -2.191320391E+00 3.345957080E-02 6.969753033E+04 1.017445846E+02 3.157569482E-01
 -2.017196250E+00 3.050566590E-02 6.969782731E+04 1.017413909E+02 3.603001933E-01
 -1.856221376E+00 2.778509389E-02 6.969817237E+04 1.017376355E+02 4.080705386E-01
 -1.707435665E+00 2.528065401E-02 6.969857261E+04 1.017332364E+02 4.593695197E-01
 -1.569947451E+00 2.297637654E-02 6.969903612E+04 1.017280989E+02 5.145241541E-01
 -1.442928716E+00 2.085743448E-02 6.969957241E+04 1.017221118E+02 5.738886818E-01
 -1.325610629E+00 1.891006098E-02 6.970019253E+04 1.017151457E+02 6.378460733E-01
 -1.217279395E+00 1.712147220E-02 6.970090930E+04 1.017070501E+02 7.068094724E-01
 -1.117272386E+00 1.547979534E-02 6.970173757E+04 1.016976501E+02 7.812239046E-01
 -1.024974550E+00 1.397400146E-02 6.970269455E+04 1.016867426E+02 8.615681242E-01
 -9.398150560E-01 1.259384299E-02 6.970380020E+04 1.016740917E+02 9.483565298E-01
 -8.612641823E-01 1.132979554E-02 6.970507763E+04 1.016594238E+02 1.042141177E+00
 -7.888304148E-01 1.017300383E-02 6.970655356E+04 1.016424218E+02 1.143513878E+00
 -7.220577492E-01 9.115231631E-03 6.970825889E+04 1.016227180E+02 1.253108371E+00
 -6.605231793E-01 8.148815450E-03 6.971022933E+04 1.015998872E+02 1.371602558E+00
 -6.038343612E-01 7.266621830E-03 6.971250610E+04 1.015734372E+02 1.499720833E+00
 -5.516274398E-01 6.462008128E-03 6.971513675E+04 1.015427991E+02 1.638236524E+00
 -5.035650263E-01 5.728786620E-03 6.971817606E+04 1.015073158E+02 1.787974527E+00
 -4.593343172E-01 5.061191821E-03 6.972168712E+04 1.014662292E+02 1.949814046E+00
 -4.186453447E-01 4.453850861E-03 6.972574252E+04 1.014186645E+02 2.124691602E+00
 -3.812293489E-01 3.901756805E-03 6.973042564E+04 1.013636141E+02 2.313604874E+00
 -3.468372642E-01 3.400244735E-03 6.973583224E+04 1.012999173E+02 2.517615652E+00
 -3.152383115E-01 2.944970446E-03 6.974207219E+04 1.012262375E+02 2.737855456E+00
 -2.862186890E-01 2.531891544E-03 6.974927148E+04 1.011410375E+02 2.975532239E+00
 -2.595803549E-01 2.157250724E-03 6.975757441E+04 1.010425521E+02 3.231935244E+00
 -2.351398957E-01 1.817560980E-03 6.976714566E+04 1.009287314E+02 3.508447827E+00
 -2.127274736E-01 1.509592454E-03 6.977817340E+04 1.007972361E+02 3.806534683E+00
 -1.921858488E-01 1.230360645E-03 6.979087450E+04 1.006454057E+02 4.127784747E+00
 -1.733694700E-01 9.771156292E-04 6.980549730E+04 1.004701322E+02 4.473970275E+00
 -1.561436295E-01 7.473319977E-04 6.982232377E+04 1.002678254E+02 4.846970833E+00
 -1.403836779E-01 5.386991831E-04 6.984167674E+04 1.000343597E+02 5.248813680E+00
 -1.259742949E-01 3.491118998E-04 6.986392746E+04 9.976494570E+01 5.681775834E+00
 -1.128088114E-01 1.766604439E-04 6.988950203E+04 9.945402418E+01 6.148381906E+00
 -1.007885800E-01 1.962065704E-05 6.991889030E+04 9.909510940E+01 6.651448968E+00
 -8.982239029E-02 -1.235565734E-04 6.995265808E+04 9.868061029E+01 7.194157094E+00
 -7.982592620E-02 -2.542563431E-04 6.999145959E+04 9.820156042E+01 7.780123220E+00
 -7.072126194E-02 -3.737113081E-04 7.003605805E+04 9.764737579E+01 8.413486518E+00
 -6.243639400E-02 -4.830137220E-04 7.008734180E+04 9.700523925E+01 9.099039978E+00
 -5.490480691E-02 -5.831277379E-04 7.014636662E+04 9.626001074E+01 9.842369864E+00
 -4.806507005E-02 -6.749017608E-04 7.021432674E+04 9.539250178E+01 1.065001884E+01
 -4.186046348E-02 -7.590808195E-04 7.029257654E+04 9.438345574E+01 1.153042971E+01
 -3.624144502E-02 -8.042404649E-04 7.038194441E+04 9.321185261E+01 1.250464500E+01
 -3.116770183E-02 -6.979104916E-04 7.048317814E+04 9.185380891E+01 1.360214694E+01
 -2.658253521E-02 -6.027766194E-04 7.059921188E+04 9.026621377E+01 1.483722032E+01
 -2.244494621E-02 -5.178542205E-04 7.073340516E+04 8.837232216E+01 1.623209638E+01
 -1.871713447E-02 -4.422207330E-04 7.088992380E+04 8.611029550E+01 1.782040233E+01
 -1.536425997E-02 -3.750155370E-04 7.107123956E+04 8.333382793E+01 1.966817050E+01
 -1.235422200E-02 -3.154392332E-04 7.128698989E+04 7.995948461E+01 2.182908099E+01
 -9.657454062E-03 -2.627523357E-04 7.153352450E+04 7.555088018E+01 2.447610478E+01
 -7.246733573E-03 -2.162733848E-04 7.183949082E+04 7.009717410E+01 2.772405413E+01
 -5.097005385E-03 -1.753764244E-04 7.215065430E+04 6.206490134E+01 3.210379342E+01
 -3.185217954E-03 -1.394874004E-04 7.255379292E+04 5.211280555E+01 3.754872637E+01
 -1.490171132E-03 -1.080777824E-04 7.265512173E+04 3.685396996E+01 4.872227322E+01
 7.626351982E-06 -8.064715534E-05 7.248599828E+04 2.638529187E+01 5.707096389E+01
 -4.913313371E+00 2.489252871E-01 6.969527684E+04 1.017609349E+02 1.764694269E-02
 -4.537975179E+00 2.348685617E-01 6.969525421E+04 1.017613299E+02 2.707307645E-02
 -4.190322096E+00 2.218604850E-01 6.969521169E+04 1.017621878E+02 4.881157777E-02
 -3.868366008E+00 2.098255550E-01 6.969517438E+04 1.017630520E+02 7.471763212E-02
 -3.570258777E+00 1.986936212E-01 6.969515078E+04 1.017638038E+02 1.028893189E-01
 -3.293226030E+00 1.836598700E-01 6.969516352E+04 1.017642476E+02 1.330490818E-01
 -3.036572659E+00 1.690191002E-01 6.969521079E+04 1.017643165E+02 1.652375307E-01
 -2.799060167E+00 1.554813348E-01 6.969527503E+04 1.017641530E+02 1.995336719E-01
 -2.579303145E+00 1.429665359E-01 6.969535869E+04 1.017637204E+02 2.360980604E-01
 -2.376014304E+00 1.314003422E-01 6.969546726E+04 1.017629654E+02 2.751480341E-01
 -2.187997638E+00 1.207136744E-01 6.969560336E+04 1.017618567E+02 3.169191060E-01
 -2.014142061E+00 1.108423662E-01 6.969577074E+04 1.017603491E+02 3.616659690E-01
 -1.853415474E+00 1.017268214E-01 6.969597483E+04 1.017583817E+02 4.096695191E-01
 -1.704859255E+00 9.331169261E-02 6.969622183E+04 1.017558838E+02 4.612365072E-01
 -1.567583112E+00 8.554558277E-02 6.969651891E+04 1.017527721E+02 5.166997711E-01
 -1.440760303E+00 7.838076618E-02 6.969687464E+04 1.017489470E+02 5.764201333E-01
 -1.323623184E+00 7.177292884E-02 6.969729907E+04 1.017442910E+02 6.407880774E-01
 -1.215459059E+00 6.568092628E-02 6.969780402E+04 1.017386656E+02 7.102253424E-01
 -1.115606324E+00 6.006655805E-02 6.969840329E+04 1.017319083E+02 7.851867841E-01
 -1.023450873E+00 5.489435758E-02 6.969911303E+04 1.017238284E+02 8.661623975E-01
 -9.384227588E-01 5.013139666E-02 6.969995210E+04 1.017142028E+02 9.536794227E-01
 -8.599930753E-01 4.574710342E-02 6.970094245E+04 1.017027707E+02 1.048304560E+00
 -7.876710674E-01 4.171309307E-02 6.970210967E+04 1.016892281E+02 1.150646292E+00
 -7.210014342E-01 3.800301061E-02 6.970348348E+04 1.016732205E+02 1.261357299E+00
 -6.595618227E-01 3.459238478E-02 6.970509837E+04 1.016543359E+02 1.381136974E+00
 -6.029604944E-01 3.145849253E-02 6.970699437E+04 1.016320952E+02 1.510734045E+00
 -5.508341558E-01 2.858023344E-02 6.970921777E+04 1.016059426E+02 1.650949331E+00
 -5.028459389E-01 2.593801355E-02 6.971182215E+04 1.015752342E+02 1.802638666E+00
 -4.586835229E-01 2.351363791E-02 6.971486933E+04 1.015392244E+02 1.966716068E+00
 -4.180573875E-01 2.129021152E-02 6.971843062E+04 1.014970516E+02 2.144157235E+00
 -3.806991873E-01 1.925204798E-02 6.972258812E+04 1.014477204E+02 2.336003356E+00
 -3.463602408E-01 1.738458548E-02 6.972743624E+04 1.013900828E+02 2.543365618E+00
 -3.148101247E-01 1.567430958E-02 6.973308346E+04 1.013228154E+02 2.767430460E+00
 -2.858353665E-01 1.410868238E-02 6.973965421E+04 1.012443938E+02 3.009466162E+00
 -2.592382293E-01 1.267607742E-02 6.974729109E+04 1.011530654E+02 3.270831150E+00